A Gromacs structure file written by ASE
 5100
    1SL       O    1   1.265   0.533   1.831
    1SL       S    2   1.360   0.429   1.861
    1SL       O    3   1.449   0.437   1.976
    1SL       C    4   1.274   0.273   1.865
    1SL       C    5   1.351   0.182   1.769
    1SL       C    6   1.395   0.272   1.653
    1SL       C    7   1.458   0.394   1.716
    1SL       H    8   1.272   0.233   1.967
    1SL       H    9   1.172   0.289   1.829
    1SL       H   10   1.290   0.099   1.734
    1SL       H   11   1.440   0.141   1.819
    1SL       H   12   1.307   0.300   1.594
    1SL       H   13   1.465   0.221   1.586
    1SL       H   14   1.457   0.481   1.649
    1SL       H   15   1.560   0.374   1.748
    2SL       O   16   2.348   2.296   3.096
    2SL       S   17   2.382   2.343   3.228
    2SL       O   18   2.348   2.268   3.347
    2SL       C   19   2.555   2.384   3.231
    2SL       C   20   2.562   2.527   3.282
    2SL       C   21   2.442   2.600   3.221
    2SL       C   22   2.322   2.510   3.247
    2SL       H   23   2.609   2.313   3.296
    2SL       H   24   2.594   2.377   3.129
    2SL       H   25   2.656   2.575   3.255
    2SL       H   26   2.554   2.528   3.392
    2SL       H   27   2.458   2.612   3.113
    2SL       H   28   2.428   2.699   3.264
    2SL       H   29   2.240   2.528   3.177
    2SL       H   30   2.286   2.521   3.350
    3SL       O   31   0.695   0.120   2.615
    3SL       S   32   0.743   0.206   2.509
    3SL       O   33   0.689   0.199   2.375
    3SL       C   34   0.737   0.375   2.566
    3SL       C   35   0.878   0.429   2.543
    3SL       C   36   0.973   0.315   2.576
    3SL       C   37   0.921   0.194   2.500
    3SL       H   38   0.661   0.430   2.510
    3SL       H   39   0.712   0.374   2.672
    3SL       H   40   0.897   0.517   2.606
    3SL       H   41   0.890   0.459   2.439
    3SL       H   42   0.972   0.295   2.684
    3SL       H   43   1.076   0.338   2.548
    3SL       H   44   0.954   0.099   2.544
    3SL       H   45   0.949   0.198   2.395
    4SL       O   46   3.748   4.120   0.932
    4SL       S   47   3.646   4.058   0.851
    4SL       O   48   3.517   4.119   0.829
    4SL       C   49   3.717   4.016   0.693
    4SL       C   50   3.688   3.867   0.674
    4SL       C   51   3.702   3.803   0.812
    4SL       C   52   3.621   3.890   0.907
    4SL       H   53   3.673   4.077   0.614
    4SL       H   54   3.825   4.033   0.698
    4SL       H   55   3.756   3.821   0.601
    4SL       H   56   3.585   3.853   0.637
    4SL       H   57   3.808   3.803   0.842
    4SL       H   58   3.667   3.700   0.813
    4SL       H   59   3.654   3.881   1.011
    4SL       H   60   3.514   3.868   0.899
    5SL       O   61   1.367   2.108   1.846
    5SL       S   62   1.395   1.970   1.875
    5SL       O   63   1.464   1.928   1.995
    5SL       C   64   1.243   1.877   1.860
    5SL       C   65   1.275   1.764   1.763
    5SL       C   66   1.369   1.824   1.657
    5SL       C   67   1.477   1.896   1.734
    5SL       H   68   1.212   1.841   1.958
    5SL       H   69   1.167   1.944   1.819
    5SL       H   70   1.184   1.724   1.717
    5SL       H   71   1.326   1.682   1.815
    5SL       H   72   1.312   1.895   1.595
    5SL       H   73   1.410   1.747   1.592
    5SL       H   74   1.526   1.974   1.675
    5SL       H   75   1.552   1.826   1.772
    6SL       O   76   3.815   2.772   2.348
    6SL       S   77   3.688   2.831   2.383
    6SL       O   78   3.578   2.751   2.435
    6SL       C   79   3.717   2.967   2.494
    6SL       C   80   3.646   3.086   2.431
    6SL       C   81   3.666   3.072   2.280
    6SL       C   82   3.629   2.929   2.246
    6SL       H   83   3.678   2.944   2.594
    6SL       H   84   3.825   2.985   2.499
    6SL       H   85   3.686   3.181   2.468
    6SL       H   86   3.539   3.083   2.454
    6SL       H   87   3.771   3.090   2.255
    6SL       H   88   3.605   3.143   2.223
    6SL       H   89   3.675   2.893   2.154
    6SL       H   90   3.520   2.916   2.241
    7SL       O   91   3.796   2.834   2.796
    7SL       S   92   3.736   2.821   2.927
    7SL       O   93   3.741   2.697   3.002
    7SL       C   94   3.796   2.954   3.030
    7SL       C   95   3.671   3.022   3.085
    7SL       C   96   3.568   3.019   2.971
    7SL       C   97   3.567   2.877   2.920
    7SL       H   98   3.861   2.914   3.109
    7SL       H   99   3.853   3.023   2.967
    7SL       H  100   3.692   3.124   3.118
    7SL       H  101   3.632   2.966   3.171
    7SL       H  102   3.601   3.088   2.892
    7SL       H  103   3.470   3.051   3.005
    7SL       H  104   3.530   2.869   2.817
    7SL       H  105   3.508   2.812   2.985
    8SL       O  106   3.233   0.972   0.654
    8SL       S  107   3.253   0.858   0.569
    8SL       O  108   3.380   0.787   0.564
    8SL       C  109   3.123   0.740   0.600
    8SL       C  110   3.062   0.711   0.463
    8SL       C  111   3.063   0.844   0.387
    8SL       C  112   3.203   0.899   0.403
    8SL       H  113   3.163   0.650   0.648
    8SL       H  114   3.049   0.787   0.666
    8SL       H  115   2.961   0.671   0.472
    8SL       H  116   3.123   0.637   0.410
    8SL       H  117   2.990   0.912   0.432
    8SL       H  118   3.037   0.831   0.282
    8SL       H  119   3.208   1.008   0.389
    8SL       H  120   3.273   0.850   0.334
    9SL       O  121   0.720   3.136   2.133
    9SL       S  122   0.814   3.199   2.223
    9SL       O  123   0.932   3.268   2.174
    9SL       C  124   0.723   3.309   2.331
    9SL       C  125   0.764   3.268   2.472
    9SL       C  126   0.777   3.115   2.469
    9SL       C  127   0.863   3.083   2.349
    9SL       H  128   0.748   3.413   2.308
    9SL       H  129   0.616   3.292   2.315
    9SL       H  130   0.690   3.300   2.546
    9SL       H  131   0.860   3.313   2.498
    9SL       H  132   0.677   3.070   2.459
    9SL       H  133   0.821   3.077   2.561
    9SL       H  134   0.848   2.981   2.312
    9SL       H  135   0.969   3.100   2.370
   10SL       O  136   3.425   0.172   0.271
   10SL       S  137   3.344   0.257   0.355
   10SL       O  138   3.252   0.201   0.453
   10SL       C  139   3.450   0.375   0.436
   10SL       C  140   3.389   0.511   0.405
   10SL       C  141   3.337   0.502   0.261
   10SL       C  142   3.257   0.374   0.254
   10SL       H  143   3.454   0.354   0.544
   10SL       H  144   3.550   0.366   0.393
   10SL       H  145   3.462   0.591   0.417
   10SL       H  146   3.305   0.531   0.473
   10SL       H  147   3.423   0.497   0.192
   10SL       H  148   3.277   0.589   0.234
   10SL       H  149   3.248   0.335   0.152
   10SL       H  150   3.157   0.388   0.297
   11SL       O  151   3.517   2.967   0.300
   11SL       S  152   3.381   2.973   0.348
   11SL       O  153   3.348   3.019   0.482
   11SL       C  154   3.284   3.066   0.230
   11SL       C  155   3.166   2.975   0.196
   11SL       C  156   3.222   2.833   0.192
   11SL       C  157   3.301   2.816   0.320
   11SL       H  158   3.252   3.161   0.274
   11SL       H  159   3.346   3.084   0.142
   11SL       H  160   3.121   3.003   0.100
   11SL       H  161   3.089   2.983   0.273
   11SL       H  162   3.288   2.822   0.104
   11SL       H  163   3.143   2.758   0.184
   11SL       H  164   3.377   2.737   0.313
   11SL       H  165   3.236   2.796   0.405
   12SL       O  166   2.782   1.488   2.187
   12SL       S  167   2.852   1.491   2.060
   12SL       O  168   2.992   1.525   2.051
   12SL       C  169   2.823   1.337   1.976
   12SL       C  170   2.770   1.376   1.839
   12SL       C  171   2.680   1.498   1.861
   12SL       C  172   2.760   1.594   1.946
   12SL       H  173   2.916   1.280   1.970
   12SL       H  174   2.749   1.281   2.032
   12SL       H  175   2.715   1.293   1.792
   12SL       H  176   2.853   1.403   1.772
   12SL       H  177   2.589   1.466   1.915
   12SL       H  178   2.649   1.544   1.767
   12SL       H  179   2.698   1.664   2.002
   12SL       H  180   2.833   1.649   1.886
   13SL       O  181   2.227   1.510   1.425
   13SL       S  182   2.301   1.528   1.548
   13SL       O  183   2.328   1.659   1.603
   13SL       C  184   2.227   1.426   1.674
   13SL       C  185   2.342   1.342   1.729
   13SL       C  186   2.431   1.307   1.610
   13SL       C  187   2.455   1.438   1.537
   13SL       H  188   2.180   1.488   1.751
   13SL       H  189   2.152   1.362   1.627
   13SL       H  190   2.305   1.252   1.779
   13SL       H  191   2.400   1.400   1.803
   13SL       H  192   2.378   1.236   1.544
   13SL       H  193   2.525   1.261   1.641
   13SL       H  194   2.481   1.424   1.432
   13SL       H  195   2.532   1.497   1.587
   14SL       O  196   3.533   3.408   0.159
   14SL       S  197   3.505   3.463   0.289
   14SL       O  198   3.371   3.464   0.345
   14SL       C  199   3.616   3.389   0.407
   14SL       C  200   3.683   3.506   0.478
   14SL       C  201   3.704   3.613   0.371
   14SL       C  202   3.572   3.628   0.299
   14SL       H  203   3.560   3.325   0.476
   14SL       H  204   3.689   3.329   0.352
   14SL       H  205   3.777   3.476   0.525
   14SL       H  206   3.617   3.546   0.556
   14SL       H  207   3.783   3.579   0.301
   14SL       H  208   3.738   3.708   0.414
   14SL       H  209   3.583   3.669   0.198
   14SL       H  210   3.502   3.689   0.357
   15SL       O  211   1.774   1.793   3.044
   15SL       S  212   1.643   1.767   3.099
   15SL       O  213   1.625   1.716   3.233
   15SL       C  214   1.544   1.915   3.080
   15SL       C  215   1.418   1.868   3.008
   15SL       C  216   1.463   1.762   2.908
   15SL       C  217   1.551   1.666   2.985
   15SL       H  218   1.523   1.959   3.178
   15SL       H  219   1.600   1.985   3.018
   15SL       H  220   1.367   1.952   2.958
   15SL       H  221   1.348   1.824   3.080
   15SL       H  222   1.520   1.810   2.827
   15SL       H  223   1.378   1.710   2.862
   15SL       H  224   1.620   1.611   2.921
   15SL       H  225   1.491   1.596   3.044
   16SL       O  226   3.273   1.742   1.834
   16SL       S  227   3.357   1.772   1.720
   16SL       O  228   3.317   1.740   1.584
   16SL       C  229   3.403   1.944   1.727
   16SL       C  230   3.556   1.944   1.718
   16SL       C  231   3.603   1.822   1.797
   16SL       C  232   3.520   1.706   1.748
   16SL       H  233   3.356   1.999   1.646
   16SL       H  234   3.370   1.984   1.823
   16SL       H  235   3.598   2.037   1.758
   16SL       H  236   3.587   1.935   1.614
   16SL       H  237   3.585   1.840   1.905
   16SL       H  238   3.710   1.804   1.784
   16SL       H  239   3.514   1.624   1.821
   16SL       H  240   3.558   1.668   1.653
   17SL       O  241   2.477   1.235   0.890
   17SL       S  242   2.441   1.144   0.996
   17SL       O  243   2.416   1.003   0.971
   17SL       C  244   2.561   1.159   1.127
   17SL       C  245   2.478   1.186   1.252
   17SL       C  246   2.363   1.277   1.209
   17SL       C  247   2.303   1.212   1.086
   17SL       H  248   2.620   1.067   1.135
   17SL       H  249   2.626   1.244   1.104
   17SL       H  250   2.539   1.233   1.331
   17SL       H  251   2.438   1.093   1.292
   17SL       H  252   2.403   1.377   1.183
   17SL       H  253   2.289   1.290   1.288
   17SL       H  254   2.249   1.282   1.022
   17SL       H  255   2.237   1.129   1.114
   18SL       O  256   2.794   2.915   0.375
   18SL       S  257   2.730   3.027   0.311
   18SL       O  258   2.596   3.018   0.258
   18SL       C  259   2.741   3.168   0.420
   18SL       C  260   2.803   3.279   0.336
   18SL       C  261   2.908   3.210   0.247
   18SL       C  262   2.838   3.091   0.185
   18SL       H  263   2.641   3.194   0.457
   18SL       H  264   2.805   3.141   0.504
   18SL       H  265   2.848   3.356   0.398
   18SL       H  266   2.727   3.326   0.273
   18SL       H  267   2.992   3.177   0.310
   18SL       H  268   2.948   3.278   0.171
   18SL       H  269   2.908   3.013   0.152
   18SL       H  270   2.775   3.122   0.100
   19SL       O  271   3.834   2.161   2.221
   19SL       S  272   3.892   2.029   2.226
   19SL       O  273   3.993   1.993   2.323
   19SL       C  274   3.759   1.909   2.234
   19SL       C  275   3.787   1.812   2.119
   19SL       C  276   3.841   1.897   2.004
   19SL       C  277   3.950   1.984   2.063
   19SL       H  278   3.759   1.860   2.331
   19SL       H  279   3.665   1.962   2.218
   19SL       H  280   3.696   1.758   2.090
   19SL       H  281   3.862   1.739   2.149
   19SL       H  282   3.760   1.960   1.964
   19SL       H  283   3.879   1.835   1.922
   19SL       H  284   3.969   2.074   2.005
   19SL       H  285   4.043   1.927   2.076
   20SL       O  286   1.385   1.315   3.792
   20SL       S  287   1.523   1.272   3.785
   20SL       O  288   1.625   1.327   3.872
   20SL       C  289   1.528   1.094   3.795
   20SL       C  290   1.608   1.050   3.673
   20SL       C  291   1.568   1.145   3.559
   20SL       C  292   1.578   1.284   3.616
   20SL       H  293   1.574   1.063   3.889
   20SL       H  294   1.425   1.057   3.790
   20SL       H  295   1.587   0.946   3.647
   20SL       H  296   1.715   1.060   3.692
   20SL       H  297   1.464   1.124   3.529
   20SL       H  298   1.631   1.132   3.471
   20SL       H  299   1.517   1.357   3.562
   20SL       H  300   1.683   1.318   3.618
   21SL       O  301   2.750   1.966   2.199
   21SL       S  302   2.828   1.911   2.308
   21SL       O  303   2.811   1.956   2.445
   21SL       C  304   2.816   1.734   2.303
   21SL       C  305   2.960   1.684   2.302
   21SL       C  306   3.038   1.783   2.216
   21SL       C  307   3.001   1.921   2.266
   21SL       H  308   2.759   1.697   2.389
   21SL       H  309   2.764   1.706   2.210
   21SL       H  310   2.966   1.582   2.262
   21SL       H  311   3.000   1.683   2.403
   21SL       H  312   3.008   1.772   2.110
   21SL       H  313   3.146   1.765   2.221
   21SL       H  314   3.017   1.999   2.192
   21SL       H  315   3.056   1.945   2.358
   22SL       O  316   1.656   0.309   0.271
   22SL       S  317   1.791   0.337   0.312
   22SL       O  318   1.886   0.404   0.225
   22SL       C  319   1.787   0.421   0.469
   22SL       C  320   1.877   0.339   0.560
   22SL       C  321   1.854   0.192   0.523
   22SL       C  322   1.865   0.186   0.372
   22SL       H  323   1.821   0.524   0.457
   22SL       H  324   1.684   0.420   0.505
   22SL       H  325   1.855   0.357   0.666
   22SL       H  326   1.982   0.365   0.543
   22SL       H  327   1.753   0.162   0.555
   22SL       H  328   1.926   0.126   0.571
   22SL       H  329   1.814   0.100   0.329
   22SL       H  330   1.970   0.186   0.340
   23SL       O  331   1.962   0.976   0.290
   23SL       S  332   1.980   1.116   0.260
   23SL       O  333   2.062   1.161   0.149
   23SL       C  334   1.820   1.192   0.249
   23SL       C  335   1.825   1.311   0.345
   23SL       C  336   1.907   1.264   0.465
   23SL       C  337   2.032   1.201   0.408
   23SL       H  338   1.800   1.223   0.145
   23SL       H  339   1.745   1.120   0.281
   23SL       H  340   1.725   1.343   0.375
   23SL       H  341   1.875   1.396   0.297
   23SL       H  342   1.849   1.189   0.522
   23SL       H  343   1.931   1.346   0.533
   23SL       H  344   2.079   1.129   0.476
   23SL       H  345   2.105   1.277   0.378
   24SL       O  346   3.167   1.898   1.556
   24SL       S  347   3.071   1.883   1.663
   24SL       O  348   3.090   1.947   1.792
   24SL       C  349   2.909   1.923   1.601
   24SL       C  350   2.823   1.802   1.635
   24SL       C  351   2.912   1.679   1.616
   24SL       C  352   3.041   1.709   1.690
   24SL       H  353   2.873   2.015   1.647
   24SL       H  354   2.916   1.936   1.492
   24SL       H  355   2.733   1.797   1.572
   24SL       H  356   2.790   1.808   1.740
   24SL       H  357   2.931   1.665   1.509
   24SL       H  358   2.864   1.588   1.654
   24SL       H  359   3.125   1.651   1.653
   24SL       H  360   3.029   1.694   1.797
   25SL       O  361   1.504   1.628   2.580
   25SL       S  362   1.430   1.602   2.459
   25SL       O  363   1.490   1.618   2.328
   25SL       C  364   1.356   1.440   2.470
   25SL       C  365   1.208   1.462   2.442
   25SL       C  366   1.171   1.595   2.507
   25SL       C  367   1.277   1.694   2.463
   25SL       H  368   1.403   1.373   2.398
   25SL       H  369   1.371   1.403   2.572
   25SL       H  370   1.147   1.380   2.481
   25SL       H  371   1.191   1.468   2.334
   25SL       H  372   1.174   1.584   2.617
   25SL       H  373   1.071   1.628   2.480
   25SL       H  374   1.287   1.779   2.531
   25SL       H  375   1.257   1.730   2.361
   26SL       O  376   3.774   2.308   1.429
   26SL       S  377   3.787   2.379   1.304
   26SL       O  378   3.685   2.469   1.256
   26SL       C  379   3.944   2.464   1.303
   26SL       C  380   4.013   2.419   1.175
   26SL       C  381   3.977   2.272   1.156
   26SL       C  382   3.827   2.263   1.174
   26SL       H  383   3.928   2.572   1.307
   26SL       H  384   4.001   2.432   1.391
   26SL       H  385   4.121   2.434   1.180
   26SL       H  386   3.975   2.477   1.089
   26SL       H  387   4.029   2.212   1.233
   26SL       H  388   4.008   2.234   1.059
   26SL       H  389   3.794   2.162   1.203
   26SL       H  390   3.775   2.294   1.084
   27SL       O  391   2.038   2.446   1.250
   27SL       S  392   1.997   2.573   1.195
   27SL       O  393   2.093   2.678   1.166
   27SL       C  394   1.899   2.542   1.050
   27SL       C  395   1.769   2.619   1.074
   27SL       C  396   1.738   2.606   1.223
   27SL       C  397   1.866   2.640   1.295
   27SL       H  398   1.952   2.576   0.961
   27SL       H  399   1.879   2.435   1.044
   27SL       H  400   1.687   2.580   1.012
   27SL       H  401   1.783   2.725   1.049
   27SL       H  402   1.709   2.502   1.244
   27SL       H  403   1.655   2.670   1.254
   27SL       H  404   1.871   2.597   1.396
   27SL       H  405   1.880   2.749   1.301
   28SL       O  406   0.863   0.852   1.013
   28SL       S  407   0.779   0.826   1.128
   28SL       O  408   0.762   0.924   1.233
   28SL       C  409   0.619   0.773   1.071
   28SL       C  410   0.593   0.641   1.143
   28SL       C  411   0.728   0.569   1.149
   28SL       C  412   0.827   0.671   1.201
   28SL       H  413   0.544   0.849   1.094
   28SL       H  414   0.625   0.758   0.963
   28SL       H  415   0.518   0.581   1.091
   28SL       H  416   0.557   0.660   1.245
   28SL       H  417   0.757   0.537   1.048
   28SL       H  418   0.724   0.481   1.213
   28SL       H  419   0.931   0.648   1.174
   28SL       H  420   0.819   0.682   1.310
   29SL       O  421   4.107   1.352   0.120
   29SL       S  422   4.038   1.380   0.243
   29SL       O  423   4.061   1.301   0.363
   29SL       C  424   4.058   1.553   0.282
   29SL       C  425   3.917   1.605   0.303
   29SL       C  426   3.829   1.534   0.201
   29SL       C  427   3.863   1.387   0.212
   29SL       H  428   4.121   1.564   0.371
   29SL       H  429   4.106   1.601   0.197
   29SL       H  430   3.912   1.714   0.291
   29SL       H  431   3.882   1.581   0.405
   29SL       H  432   3.854   1.570   0.100
   29SL       H  433   3.723   1.552   0.217
   29SL       H  434   3.839   1.330   0.122
   29SL       H  435   3.812   1.342   0.298
   30SL       O  436   0.494   2.089   0.394
   30SL       S  437   0.537   2.134   0.264
   30SL       O  438   0.443   2.153   0.155
   30SL       C  439   0.635   2.282   0.283
   30SL       C  440   0.766   2.253   0.210
   30SL       C  441   0.797   2.105   0.237
   30SL       C  442   0.670   2.029   0.207
   30SL       H  443   0.582   2.368   0.242
   30SL       H  444   0.652   2.297   0.390
   30SL       H  445   0.846   2.318   0.245
   30SL       H  446   0.753   2.269   0.103
   30SL       H  447   0.825   2.093   0.343
   30SL       H  448   0.881   2.070   0.176
   30SL       H  449   0.665   1.933   0.258
   30SL       H  450   0.657   2.015   0.099
   31SL       O  451   4.120   2.280   3.770
   31SL       S  452   3.992   2.342   3.745
   31SL       O  453   3.875   2.264   3.709
   31SL       C  454   3.951   2.445   3.885
   31SL       C  455   3.920   2.582   3.825
   31SL       C  456   4.018   2.601   3.710
   31SL       C  457   4.011   2.474   3.628
   31SL       H  458   3.866   2.402   3.939
   31SL       H  459   4.038   2.450   3.951
   31SL       H  460   3.929   2.661   3.900
   31SL       H  461   3.817   2.584   3.787
   31SL       H  462   4.120   2.614   3.751
   31SL       H  463   3.995   2.689   3.650
   31SL       H  464   4.101   2.457   3.568
   31SL       H  465   3.923   2.474   3.563
   32SL       O  466   1.519   3.038   1.626
   32SL       S  467   1.521   2.933   1.725
   32SL       O  468   1.543   2.960   1.866
   32SL       C  469   1.373   2.836   1.707
   32SL       C  470   1.422   2.692   1.692
   32SL       C  471   1.550   2.699   1.609
   32SL       C  472   1.635   2.806   1.673
   32SL       H  473   1.308   2.849   1.794
   32SL       H  474   1.322   2.868   1.616
   32SL       H  475   1.347   2.628   1.645
   32SL       H  476   1.444   2.649   1.791
   32SL       H  477   1.525   2.726   1.506
   32SL       H  478   1.602   2.603   1.606
   32SL       H  479   1.709   2.849   1.604
   32SL       H  480   1.686   2.769   1.762
   33SL       O  481   3.974   0.790   2.815
   33SL       S  482   3.904   0.666   2.840
   33SL       O  483   3.782   0.631   2.770
   33SL       C  484   4.020   0.531   2.825
   33SL       C  485   4.008   0.454   2.956
   33SL       C  486   3.986   0.558   3.065
   33SL       C  487   3.877   0.649   3.016
   33SL       H  488   3.996   0.470   2.738
   33SL       H  489   4.120   0.574   2.814
   33SL       H  490   4.097   0.393   2.975
   33SL       H  491   3.921   0.387   2.952
   33SL       H  492   4.080   0.615   3.080
   33SL       H  493   3.961   0.512   3.161
   33SL       H  494   3.878   0.748   3.063
   33SL       H  495   3.778   0.603   3.030
   34SL       O  496   2.610   0.634   2.444
   34SL       S  497   2.559   0.575   2.565
   34SL       O  498   2.420   0.534   2.577
   34SL       C  499   2.664   0.439   2.611
   34SL       C  500   2.704   0.467   2.756
   34SL       C  501   2.723   0.618   2.766
   34SL       C  502   2.600   0.680   2.703
   34SL       H  503   2.610   0.344   2.600
   34SL       H  504   2.751   0.439   2.546
   34SL       H  505   2.795   0.412   2.783
   34SL       H  506   2.623   0.435   2.824
   34SL       H  507   2.813   0.647   2.709
   34SL       H  508   2.736   0.651   2.869
   34SL       H  509   2.617   0.782   2.668
   34SL       H  510   2.515   0.679   2.773
   35SL       O  511   0.989   0.810   2.378
   35SL       S  512   1.083   0.880   2.294
   35SL       O  513   1.067   0.888   2.150
   35SL       C  514   1.104   1.045   2.359
   35SL       C  515   1.255   1.061   2.378
   35SL       C  516   1.307   0.925   2.426
   35SL       C  517   1.248   0.823   2.331
   35SL       H  518   1.063   1.118   2.290
   35SL       H  519   1.053   1.050   2.456
   35SL       H  520   1.278   1.140   2.450
   35SL       H  521   1.302   1.087   2.282
   35SL       H  522   1.271   0.907   2.528
   35SL       H  523   1.416   0.921   2.427
   35SL       H  524   1.243   0.722   2.374
   35SL       H  525   1.304   0.819   2.237
   36SL       O  526   2.170   2.756   2.658
   36SL       S  527   2.208   2.811   2.530
   36SL       O  528   2.339   2.786   2.471
   36SL       C  529   2.082   2.770   2.411
   36SL       C  530   2.042   2.903   2.348
   36SL       C  531   2.046   3.006   2.461
   36SL       C  532   2.179   2.987   2.531
   36SL       H  533   2.121   2.699   2.337
   36SL       H  534   1.998   2.726   2.465
   36SL       H  535   1.943   2.898   2.302
   36SL       H  536   2.114   2.932   2.270
   36SL       H  537   1.963   2.986   2.531
   36SL       H  538   2.034   3.108   2.424
   36SL       H  539   2.179   3.024   2.634
   36SL       H  540   2.260   3.035   2.474
   37SL       O  541   1.809   3.592   1.844
   37SL       S  542   1.733   3.708   1.806
   37SL       O  543   1.656   3.784   1.902
   37SL       C  544   1.841   3.820   1.718
   37SL       C  545   1.769   3.848   1.586
   37SL       C  546   1.702   3.717   1.545
   37SL       C  547   1.629   3.667   1.668
   37SL       H  548   1.858   3.910   1.777
   37SL       H  549   1.936   3.768   1.700
   37SL       H  550   1.839   3.884   1.510
   37SL       H  551   1.693   3.925   1.601
   37SL       H  552   1.780   3.645   1.515
   37SL       H  553   1.635   3.730   1.460
   37SL       H  554   1.611   3.559   1.666
   37SL       H  555   1.534   3.720   1.681
   38SL       O  556   3.347   0.725   3.100
   38SL       S  557   3.297   0.804   3.210
   38SL       O  558   3.302   0.756   3.347
   38SL       C  559   3.373   0.965   3.202
   38SL       C  560   3.256   1.064   3.205
   38SL       C  561   3.144   0.999   3.123
   38SL       C  562   3.131   0.858   3.174
   38SL       H  563   3.441   0.979   3.287
   38SL       H  564   3.428   0.973   3.108
   38SL       H  565   3.285   1.161   3.165
   38SL       H  566   3.222   1.079   3.308
   38SL       H  567   3.173   0.999   3.017
   38SL       H  568   3.050   1.054   3.132
   38SL       H  569   3.086   0.790   3.101
   38SL       H  570   3.074   0.855   3.268
   39SL       O  571   2.291   2.040   2.035
   39SL       S  572   2.244   1.908   2.067
   39SL       O  573   2.121   1.886   2.142
   39SL       C  574   2.238   1.811   1.918
   39SL       C  575   2.319   1.685   1.949
   39SL       C  576   2.436   1.731   2.037
   39SL       C  577   2.375   1.816   2.146
   39SL       H  578   2.135   1.788   1.891
   39SL       H  579   2.286   1.869   1.838
   39SL       H  580   2.354   1.637   1.857
   39SL       H  581   2.258   1.613   2.004
   39SL       H  582   2.506   1.791   1.976
   39SL       H  583   2.492   1.646   2.078
   39SL       H  584   2.447   1.886   2.190
   39SL       H  585   2.331   1.754   2.224
   40SL       O  586   0.199   2.841   3.692
   40SL       S  587   0.322   2.886   3.753
   40SL       O  588   0.450   2.869   3.687
   40SL       C  589   0.303   3.057   3.799
   40SL       C  590   0.340   3.062   3.947
   40SL       C  591   0.286   2.933   4.009
   40SL       C  592   0.333   2.821   3.918
   40SL       H  593   0.367   3.120   3.737
   40SL       H  594   0.198   3.085   3.784
   40SL       H  595   0.298   3.151   3.996
   40SL       H  596   0.449   3.066   3.958
   40SL       H  597   0.176   2.937   4.011
   40SL       H  598   0.321   2.920   4.111
   40SL       H  599   0.271   2.731   3.927
   40SL       H  600   0.437   2.796   3.938
   41SL       O  601   0.500   0.547   0.871
   41SL       S  602   0.367   0.543   0.926
   41SL       O  603   0.330   0.449   1.030
   41SL       C  604   0.322   0.707   0.978
   41SL       C  605   0.189   0.736   0.909
   41SL       C  606   0.198   0.672   0.771
   41SL       C  607   0.248   0.531   0.794
   41SL       H  608   0.314   0.712   1.087
   41SL       H  609   0.399   0.776   0.943
   41SL       H  610   0.169   0.843   0.903
   41SL       H  611   0.106   0.689   0.966
   41SL       H  612   0.270   0.728   0.709
   41SL       H  613   0.102   0.672   0.719
   41SL       H  614   0.297   0.488   0.705
   41SL       H  615   0.168   0.465   0.827
   42SL       O  616   0.614   1.333   3.540
   42SL       S  617   0.543   1.318   3.665
   42SL       O  618   0.546   1.194   3.740
   42SL       C  619   0.587   1.453   3.773
   42SL       C  620   0.454   1.515   3.815
   42SL       C  621   0.363   1.509   3.692
   42SL       C  622   0.373   1.367   3.641
   42SL       H  623   0.645   1.416   3.858
   42SL       H  624   0.647   1.524   3.715
   42SL       H  625   0.468   1.618   3.850
   42SL       H  626   0.410   1.457   3.897
   42SL       H  627   0.400   1.579   3.616
   42SL       H  628   0.260   1.536   3.716
   42SL       H  629   0.346   1.358   3.535
   42SL       H  630   0.310   1.299   3.700
   43SL       O  631   1.855   1.997   2.231
   43SL       S  632   1.762   2.041   2.332
   43SL       O  633   1.753   2.180   2.374
   43SL       C  634   1.599   1.983   2.289
   43SL       C  635   1.550   1.907   2.412
   43SL       C  636   1.672   1.835   2.469
   43SL       C  637   1.782   1.939   2.477
   43SL       H  638   1.535   2.067   2.262
   43SL       H  639   1.609   1.916   2.203
   43SL       H  640   1.470   1.837   2.386
   43SL       H  641   1.511   1.978   2.486
   43SL       H  642   1.701   1.754   2.401
   43SL       H  643   1.651   1.791   2.566
   43SL       H  644   1.882   1.895   2.478
   43SL       H  645   1.769   2.003   2.565
   44SL       O  646   3.805   3.056   4.094
   44SL       S  647   3.933   3.093   4.038
   44SL       O  648   4.042   3.142   4.119
   44SL       C  649   3.992   2.957   3.939
   44SL       C  650   4.022   3.017   3.802
   44SL       C  651   3.913   3.122   3.777
   44SL       C  652   3.907   3.206   3.902
   44SL       H  653   4.080   2.912   3.985
   44SL       H  654   3.912   2.883   3.932
   44SL       H  655   4.023   2.941   3.723
   44SL       H  656   4.120   3.066   3.803
   44SL       H  657   3.817   3.071   3.760
   44SL       H  658   3.934   3.182   3.689
   44SL       H  659   3.810   3.257   3.915
   44SL       H  660   3.987   3.280   3.904
   45SL       O  661   1.382   3.381   2.177
   45SL       S  662   1.440   3.445   2.061
   45SL       O  663   1.531   3.374   1.972
   45SL       C  664   1.309   3.517   1.964
   45SL       C  665   1.349   3.663   1.945
   45SL       C  666   1.415   3.706   2.076
   45SL       C  667   1.516   3.598   2.110
   45SL       H  668   1.298   3.464   1.869
   45SL       H  669   1.216   3.509   2.022
   45SL       H  670   1.263   3.725   1.921
   45SL       H  671   1.422   3.671   1.863
   45SL       H  672   1.338   3.712   2.155
   45SL       H  673   1.461   3.804   2.068
   45SL       H  674   1.540   3.595   2.217
   45SL       H  675   1.607   3.611   2.052
   46SL       O  676   3.505   2.614   1.672
   46SL       S  677   3.500   2.703   1.559
   46SL       O  678   3.377   2.726   1.484
   46SL       C  679   3.569   2.860   1.607
   46SL       C  680   3.677   2.890   1.503
   46SL       C  681   3.743   2.755   1.471
   46SL       C  682   3.629   2.659   1.444
   46SL       H  683   3.491   2.937   1.609
   46SL       H  684   3.612   2.849   1.706
   46SL       H  685   3.750   2.962   1.541
   46SL       H  686   3.632   2.931   1.412
   46SL       H  687   3.801   2.722   1.559
   46SL       H  688   3.811   2.762   1.386
   46SL       H  689   3.657   2.554   1.459
   46SL       H  690   3.590   2.673   1.343
   47SL       O  691   1.418   3.165   3.479
   47SL       S  692   1.371   3.095   3.362
   47SL       O  693   1.238   3.118   3.308
   47SL       C  694   1.491   3.116   3.232
   47SL       C  695   1.523   2.974   3.185
   47SL       C  696   1.523   2.887   3.310
   47SL       C  697   1.395   2.920   3.384
   47SL       H  698   1.450   3.178   3.152
   47SL       H  699   1.580   3.164   3.275
   47SL       H  700   1.620   2.970   3.133
   47SL       H  701   1.446   2.939   3.115
   47SL       H  702   1.610   2.913   3.373
   47SL       H  703   1.529   2.781   3.286
   47SL       H  704   1.400   2.897   3.491
   47SL       H  705   1.309   2.869   3.339
   48SL       O  706   2.760   2.386   2.425
   48SL       S  707   2.794   2.246   2.435
   48SL       O  708   2.740   2.147   2.344
   48SL       C  709   2.971   2.231   2.438
   48SL       C  710   3.002   2.149   2.563
   48SL       C  711   2.901   2.195   2.669
   48SL       C  712   2.766   2.192   2.602
   48SL       H  713   3.007   2.183   2.347
   48SL       H  714   3.014   2.332   2.446
   48SL       H  715   3.105   2.164   2.597
   48SL       H  716   2.988   2.043   2.543
   48SL       H  717   2.926   2.298   2.701
   48SL       H  718   2.904   2.131   2.758
   48SL       H  719   2.693   2.257   2.651
   48SL       H  720   2.726   2.090   2.598
   49SL       O  721   0.164   2.743   0.778
   49SL       S  722   0.234   2.738   0.652
   49SL       O  723   0.186   2.658   0.541
   49SL       C  724   0.262   2.904   0.596
   49SL       C  725   0.412   2.913   0.570
   49SL       C  726   0.479   2.829   0.679
   49SL       C  727   0.405   2.697   0.682
   49SL       H  728   0.203   2.925   0.507
   49SL       H  729   0.233   2.973   0.676
   49SL       H  730   0.448   3.016   0.571
   49SL       H  731   0.436   2.870   0.471
   49SL       H  732   0.469   2.881   0.776
   49SL       H  733   0.586   2.815   0.660
   49SL       H  734   0.415   2.645   0.778
   49SL       H  735   0.439   2.632   0.601
   50SL       O  736   2.893   2.660   3.347
   50SL       S  737   2.955   2.584   3.453
   50SL       O  738   3.001   2.647   3.575
   50SL       C  739   2.848   2.447   3.495
   50SL       C  740   2.937   2.324   3.485
   50SL       C  741   3.030   2.348   3.366
   50SL       C  742   3.087   2.486   3.385
   50SL       H  743   2.807   2.461   3.595
   50SL       H  744   2.767   2.443   3.421
   50SL       H  745   2.877   2.233   3.471
   50SL       H  746   2.996   2.312   3.576
   50SL       H  747   2.971   2.343   3.272
   50SL       H  748   3.108   2.272   3.359
   50SL       H  749   3.122   2.531   3.292
   50SL       H  750   3.169   2.485   3.458
   51SL       O  751   0.569   3.568   3.912
   51SL       S  752   0.494   3.565   3.788
   51SL       O  753   0.375   3.645   3.769
   51SL       C  754   0.606   3.594   3.653
   51SL       C  755   0.584   3.477   3.557
   51SL       C  756   0.560   3.355   3.645
   51SL       C  757   0.456   3.396   3.747
   51SL       H  758   0.585   3.691   3.607
   51SL       H  759   0.708   3.593   3.692
   51SL       H  760   0.670   3.464   3.491
   51SL       H  761   0.495   3.496   3.495
   51SL       H  762   0.654   3.327   3.696
   51SL       H  763   0.528   3.268   3.587
   51SL       H  764   0.459   3.334   3.838
   51SL       H  765   0.356   3.394   3.704
   52SL       O  766   2.671   0.634   3.757
   52SL       S  767   2.603   0.604   3.880
   52SL       O  768   2.660   0.635   4.010
   52SL       C  769   2.438   0.672   3.872
   52SL       C  770   2.346   0.554   3.904
   52SL       C  771   2.409   0.432   3.838
   52SL       C  772   2.554   0.432   3.879
   52SL       H  773   2.428   0.754   3.943
   52SL       H  774   2.421   0.708   3.770
   52SL       H  775   2.244   0.572   3.866
   52SL       H  776   2.340   0.539   4.012
   52SL       H  777   2.400   0.441   3.728
   52SL       H  778   2.359   0.339   3.868
   52SL       H  779   2.618   0.376   3.811
   52SL       H  780   2.566   0.394   3.981
   53SL       O  781   0.509   0.456   2.116
   53SL       S  782   0.616   0.516   2.192
   53SL       O  783   0.603   0.547   2.333
   53SL       C  784   0.764   0.420   2.167
   53SL       C  785   0.869   0.521   2.120
   53SL       C  786   0.796   0.620   2.030
   53SL       C  787   0.672   0.663   2.107
   53SL       H  788   0.793   0.370   2.260
   53SL       H  789   0.744   0.346   2.089
   53SL       H  790   0.951   0.472   2.067
   53SL       H  791   0.911   0.574   2.206
   53SL       H  792   0.767   0.570   1.936
   53SL       H  793   0.858   0.706   2.004
   53SL       H  794   0.592   0.700   2.042
   53SL       H  795   0.696   0.738   2.182
   54SL       O  796   1.901   1.565   3.327
   54SL       S  797   1.916   1.429   3.280
   54SL       O  798   2.032   1.349   3.313
   54SL       C  799   1.769   1.338   3.320
   54SL       C  800   1.722   1.278   3.188
   54SL       C  801   1.751   1.383   3.081
   54SL       C  802   1.894   1.427   3.103
   54SL       H  803   1.791   1.262   3.396
   54SL       H  804   1.695   1.409   3.359
   54SL       H  805   1.616   1.251   3.191
   54SL       H  806   1.779   1.186   3.166
   54SL       H  807   1.682   1.468   3.094
   54SL       H  808   1.736   1.343   2.980
   54SL       H  809   1.914   1.526   3.062
   54SL       H  810   1.964   1.354   3.061
   55SL       O  811   2.290   0.878   1.252
   55SL       S  812   2.208   0.840   1.139
   55SL       O  813   2.253   0.857   1.003
   55SL       C  814   2.154   0.672   1.163
   55SL       C  815   2.002   0.676   1.149
   55SL       C  816   1.958   0.807   1.215
   55SL       C  817   2.047   0.915   1.157
   55SL       H  818   2.201   0.607   1.088
   55SL       H  819   2.183   0.640   1.263
   55SL       H  820   1.955   0.590   1.197
   55SL       H  821   1.974   0.677   1.043
   55SL       H  822   1.973   0.800   1.324
   55SL       H  823   1.852   0.828   1.197
   55SL       H  824   2.054   1.003   1.221
   55SL       H  825   2.013   0.945   1.057
   56SL       O  826   2.618   3.149   2.809
   56SL       S  827   2.721   3.096   2.723
   56SL       O  828   2.849   3.051   2.776
   56SL       C  829   2.651   2.966   2.624
   56SL       C  830   2.684   3.004   2.480
   56SL       C  831   2.672   3.156   2.472
   56SL       C  832   2.751   3.210   2.590
   56SL       H  833   2.693   2.869   2.653
   56SL       H  834   2.542   2.966   2.639
   56SL       H  835   2.617   2.954   2.409
   56SL       H  836   2.787   2.974   2.456
   56SL       H  837   2.566   3.185   2.480
   56SL       H  838   2.710   3.195   2.377
   56SL       H  839   2.719   3.311   2.619
   56SL       H  840   2.858   3.210   2.569
   57SL       O  841   2.972   0.807   1.462
   57SL       S  842   2.942   0.936   1.404
   57SL       O  843   2.987   0.971   1.270
   57SL       C  844   2.766   0.964   1.415
   57SL       C  845   2.752   1.099   1.484
   57SL       C  846   2.864   1.105   1.589
   57SL       C  847   2.991   1.064   1.517
   57SL       H  848   2.721   0.962   1.316
   57SL       H  849   2.723   0.884   1.477
   57SL       H  850   2.654   1.111   1.530
   57SL       H  851   2.766   1.180   1.411
   57SL       H  852   2.841   1.034   1.670
   57SL       H  853   2.873   1.205   1.633
   57SL       H  854   3.068   1.026   1.585
   57SL       H  855   3.031   1.147   1.458
   58SL       O  856   1.460   1.142   1.674
   58SL       S  857   1.394   1.267   1.706
   58SL       O  858   1.411   1.331   1.835
   58SL       C  859   1.431   1.385   1.578
   58SL       C  860   1.295   1.436   1.531
   58SL       C  861   1.201   1.316   1.535
   58SL       C  862   1.220   1.252   1.671
   58SL       H  863   1.495   1.464   1.617
   58SL       H  864   1.482   1.332   1.497
   58SL       H  865   1.301   1.480   1.431
   58SL       H  866   1.259   1.514   1.600
   58SL       H  867   1.229   1.245   1.455
   58SL       H  868   1.097   1.345   1.519
   58SL       H  869   1.191   1.147   1.673
   58SL       H  870   1.166   1.307   1.748
   59SL       O  871   2.288   0.572   3.403
   59SL       S  872   2.232   0.652   3.510
   59SL       O  873   2.259   0.622   3.650
   59SL       C  874   2.272   0.823   3.479
   59SL       C  875   2.138   0.896   3.484
   59SL       C  876   2.035   0.801   3.421
   59SL       C  877   2.056   0.667   3.487
   59SL       H  878   2.342   0.860   3.554
   59SL       H  879   2.316   0.830   3.379
   59SL       H  880   2.142   0.992   3.431
   59SL       H  881   2.110   0.916   3.588
   59SL       H  882   2.055   0.794   3.312
   59SL       H  883   1.933   0.837   3.433
   59SL       H  884   2.020   0.583   3.426
   59SL       H  885   2.009   0.664   3.585
   60SL       O  886   0.305   2.383   2.553
   60SL       S  887   0.414   2.357   2.643
   60SL       O  888   0.472   2.225   2.658
   60SL       C  889   0.544   2.474   2.610
   60SL       C  890   0.575   2.539   2.744
   60SL       C  891   0.440   2.554   2.816
   60SL       C  892   0.372   2.419   2.805
   60SL       H  893   0.631   2.423   2.567
   60SL       H  894   0.507   2.548   2.539
   60SL       H  895   0.625   2.636   2.732
   60SL       H  896   0.641   2.474   2.804
   60SL       H  897   0.380   2.631   2.764
   60SL       H  898   0.452   2.585   2.919
   60SL       H  899   0.264   2.425   2.815
   60SL       H  900   0.412   2.349   2.879
   61SL       O  901   3.102   2.017   0.382
   61SL       S  902   3.058   2.143   0.436
   61SL       O  903   3.024   2.256   0.351
   61SL       C  904   2.922   2.113   0.548
   61SL       C  905   2.963   2.180   0.679
   61SL       C  906   3.114   2.158   0.693
   61SL       C  907   3.174   2.197   0.560
   61SL       H  908   2.830   2.154   0.507
   61SL       H  909   2.913   2.005   0.561
   61SL       H  910   2.908   2.139   0.764
   61SL       H  911   2.942   2.288   0.674
   61SL       H  912   3.133   2.051   0.713
   61SL       H  913   3.156   2.215   0.775
   61SL       H  914   3.272   2.151   0.541
   61SL       H  915   3.184   2.306   0.552
   62SL       O  916   0.538   2.602   0.156
   62SL       S  917   0.452   2.643   0.264
   62SL       O  918   0.504   2.675   0.395
   62SL       C  919   0.350   2.778   0.207
   62SL       C  920   0.207   2.735   0.237
   62SL       C  921   0.202   2.584   0.210
   62SL       C  922   0.320   2.524   0.282
   62SL       H  923   0.378   2.870   0.259
   62SL       H  924   0.366   2.789   0.100
   62SL       H  925   0.135   2.790   0.176
   62SL       H  926   0.183   2.754   0.343
   62SL       H  927   0.210   2.567   0.101
   62SL       H  928   0.108   2.540   0.243
   62SL       H  929   0.352   2.428   0.240
   62SL       H  930   0.300   2.513   0.389
   63SL       O  931   3.341   2.627   1.941
   63SL       S  932   3.252   2.516   1.920
   63SL       O  933   3.112   2.535   1.886
   63SL       C  934   3.326   2.406   1.801
   63SL       C  935   3.326   2.269   1.868
   63SL       C  936   3.356   2.294   2.016
   63SL       C  937   3.263   2.405   2.059
   63SL       H  938   3.268   2.407   1.708
   63SL       H  939   3.428   2.440   1.782
   63SL       H  940   3.400   2.202   1.823
   63SL       H  941   3.227   2.222   1.858
   63SL       H  942   3.461   2.327   2.026
   63SL       H  943   3.343   2.204   2.076
   63SL       H  944   3.299   2.459   2.147
   63SL       H  945   3.162   2.366   2.079
   64SL       O  946   0.571   1.792   0.686
   64SL       S  947   0.580   1.906   0.599
   64SL       O  948   0.574   1.893   0.454
   64SL       C  949   0.459   2.027   0.651
   64SL       C  950   0.537   2.156   0.670
   64SL       C  951   0.672   2.115   0.729
   64SL       C  952   0.723   2.003   0.642
   64SL       H  953   0.380   2.036   0.575
   64SL       H  954   0.416   1.993   0.745
   64SL       H  955   0.484   2.226   0.735
   64SL       H  956   0.553   2.205   0.573
   64SL       H  957   0.657   2.080   0.833
   64SL       H  958   0.742   2.199   0.732
   64SL       H  959   0.796   1.939   0.694
   64SL       H  960   0.767   2.041   0.550
   65SL       O  961   1.207   0.572   2.123
   65SL       S  962   1.182   0.496   2.244
   65SL       O  963   1.106   0.551   2.354
   65SL       C  964   1.112   0.339   2.198
   65SL       C  965   1.200   0.235   2.266
   65SL       C  966   1.343   0.289   2.258
   65SL       C  967   1.336   0.433   2.306
   65SL       H  968   1.008   0.333   2.231
   65SL       H  969   1.117   0.329   2.089
   65SL       H  970   1.192   0.137   2.218
   65SL       H  971   1.171   0.224   2.371
   65SL       H  972   1.377   0.286   2.153
   65SL       H  973   1.413   0.230   2.318
   65SL       H  974   1.419   0.494   2.269
   65SL       H  975   1.332   0.437   2.415
   66SL       O  976   2.281   3.298   1.195
   66SL       S  977   2.411   3.293   1.131
   66SL       O  978   2.534   3.288   1.207
   66SL       C  979   2.410   3.161   1.012
   66SL       C  980   2.454   3.225   0.881
   66SL       C  981   2.391   3.364   0.879
   66SL       C  982   2.422   3.426   1.013
   66SL       H  983   2.477   3.081   1.044
   66SL       H  984   2.308   3.122   1.004
   66SL       H  985   2.423   3.165   0.794
   66SL       H  986   2.563   3.234   0.878
   66SL       H  987   2.282   3.354   0.866
   66SL       H  988   2.428   3.425   0.796
   66SL       H  989   2.352   3.506   1.041
   66SL       H  990   2.524   3.465   1.016
   67SL       O  991   3.028   3.388   2.273
   67SL       S  992   3.081   3.297   2.372
   67SL       O  993   3.052   3.313   2.513
   67SL       C  994   3.041   3.131   2.323
   67SL       C  995   3.174   3.056   2.323
   67SL       C  996   3.278   3.155   2.271
   67SL       C  997   3.257   3.282   2.350
   67SL       H  998   2.968   3.087   2.392
   67SL       H  999   2.998   3.134   2.222
   67SL       H 1000   3.169   2.966   2.261
   67SL       H 1001   3.200   3.025   2.425
   67SL       H 1002   3.261   3.173   2.164
   67SL       H 1003   3.380   3.117   2.282
   67SL       H 1004   3.295   3.371   2.299
   67SL       H 1005   3.302   3.275   2.449
   68SL       O 1006   4.109   1.210   3.789
   68SL       S 1007   4.008   1.182   3.689
   68SL       O 1008   4.035   1.197   3.547
   68SL       C 1009   3.944   1.018   3.718
   68SL       C 1010   3.793   1.036   3.727
   68SL       C 1011   3.770   1.169   3.799
   68SL       C 1012   3.859   1.270   3.729
   68SL       H 1013   3.974   0.951   3.638
   68SL       H 1014   3.984   0.982   3.814
   68SL       H 1015   3.746   0.953   3.780
   68SL       H 1016   3.750   1.041   3.626
   68SL       H 1017   3.799   1.159   3.904
   68SL       H 1018   3.665   1.199   3.796
   68SL       H 1019   3.883   1.356   3.792
   68SL       H 1020   3.814   1.304   3.635
   69SL       O 1021   0.100   2.147   0.929
   69SL       S 1022   0.227   2.204   0.893
   69SL       O 1023   0.351   2.129   0.906
   69SL       C 1024   0.215   2.270   0.728
   69SL       C 1025   0.262   2.415   0.740
   69SL       C 1026   0.210   2.466   0.874
   69SL       C 1027   0.247   2.361   0.976
   69SL       H 1028   0.277   2.211   0.660
   69SL       H 1029   0.111   2.265   0.697
   69SL       H 1030   0.226   2.475   0.656
   69SL       H 1031   0.372   2.419   0.739
   69SL       H 1032   0.100   2.476   0.868
   69SL       H 1033   0.251   2.563   0.900
   69SL       H 1034   0.183   2.363   1.065
   69SL       H 1035   0.352   2.370   1.005
   70SL       O 1036   1.632   1.449   2.574
   70SL       S 1037   1.654   1.374   2.453
   70SL       O 1038   1.605   1.420   2.324
   70SL       C 1039   1.828   1.337   2.439
   70SL       C 1040   1.835   1.186   2.420
   70SL       C 1041   1.725   1.126   2.508
   70SL       C 1042   1.600   1.205   2.477
   70SL       H 1043   1.871   1.392   2.355
   70SL       H 1044   1.876   1.367   2.532
   70SL       H 1045   1.933   1.147   2.447
   70SL       H 1046   1.815   1.160   2.315
   70SL       H 1047   1.753   1.139   2.614
   70SL       H 1048   1.711   1.020   2.490
   70SL       H 1049   1.526   1.202   2.558
   70SL       H 1050   1.554   1.171   2.384
   71SL       O 1051   3.796   3.479   1.978
   71SL       S 1052   3.819   3.523   2.114
   71SL       O 1053   3.945   3.582   2.155
   71SL       C 1054   3.686   3.630   2.162
   71SL       C 1055   3.632   3.571   2.292
   71SL       C 1056   3.640   3.419   2.276
   71SL       C 1057   3.780   3.390   2.226
   71SL       H 1058   3.722   3.732   2.175
   71SL       H 1059   3.609   3.627   2.084
   71SL       H 1060   3.530   3.604   2.312
   71SL       H 1061   3.695   3.602   2.376
   71SL       H 1062   3.565   3.386   2.202
   71SL       H 1063   3.619   3.367   2.369
   71SL       H 1064   3.787   3.294   2.173
   71SL       H 1065   3.852   3.392   2.307
   72SL       O 1066   0.474   3.695   2.369
   72SL       S 1067   0.471   3.834   2.329
   72SL       O 1068   0.400   3.879   2.211
   72SL       C 1069   0.418   3.931   2.469
   72SL       C 1070   0.526   4.038   2.486
   72SL       C 1071   0.659   3.969   2.454
   72SL       C 1072   0.638   3.896   2.323
   72SL       H 1073   0.319   3.974   2.450
   72SL       H 1074   0.414   3.866   2.556
   72SL       H 1075   0.526   4.079   2.587
   72SL       H 1076   0.509   4.120   2.415
   72SL       H 1077   0.683   3.897   2.534
   72SL       H 1078   0.741   4.040   2.448
   72SL       H 1079   0.708   3.813   2.309
   72SL       H 1080   0.644   3.965   2.238
   73SL       O 1081   1.008   1.554   3.607
   73SL       S 1082   0.931   1.661   3.547
   73SL       O 1083   0.899   1.782   3.620
   73SL       C 1084   1.008   1.706   3.393
   73SL       C 1085   0.896   1.698   3.289
   73SL       C 1086   0.810   1.578   3.329
   73SL       C 1087   0.782   1.594   3.477
   73SL       H 1088   1.051   1.806   3.400
   73SL       H 1089   1.086   1.633   3.371
   73SL       H 1090   0.936   1.687   3.188
   73SL       H 1091   0.836   1.789   3.292
   73SL       H 1092   0.867   1.485   3.311
   73SL       H 1093   0.718   1.572   3.271
   73SL       H 1094   0.757   1.500   3.526
   73SL       H 1095   0.702   1.667   3.493
   74SL       O 1096   3.591   0.913   1.592
   74SL       S 1097   3.526   0.954   1.469
   74SL       O 1098   3.475   1.088   1.450
   74SL       C 1099   3.631   0.910   1.333
   74SL       C 1100   3.543   0.828   1.239
   74SL       C 1101   3.454   0.743   1.330
   74SL       C 1102   3.395   0.838   1.432
   74SL       H 1103   3.670   1.001   1.285
   74SL       H 1104   3.714   0.851   1.371
   74SL       H 1105   3.604   0.766   1.172
   74SL       H 1106   3.481   0.894   1.178
   74SL       H 1107   3.516   0.666   1.380
   74SL       H 1108   3.376   0.691   1.273
   74SL       H 1109   3.363   0.787   1.523
   74SL       H 1110   3.312   0.894   1.389
   75SL       O 1111   0.584   0.913   3.735
   75SL       S 1112   0.722   0.933   3.771
   75SL       O 1113   0.777   1.065   3.793
   75SL       C 1114   0.758   0.831   3.913
   75SL       C 1115   0.880   0.749   3.872
   75SL       C 1116   0.862   0.715   3.724
   75SL       C 1117   0.826   0.845   3.656
   75SL       H 1118   0.777   0.893   4.001
   75SL       H 1119   0.672   0.766   3.931
   75SL       H 1120   0.890   0.659   3.934
   75SL       H 1121   0.972   0.809   3.885
   75SL       H 1122   0.779   0.643   3.714
   75SL       H 1123   0.951   0.670   3.681
   75SL       H 1124   0.772   0.831   3.562
   75SL       H 1125   0.915   0.906   3.639
   76SL       O 1126   3.132   0.525   2.665
   76SL       S 1127   3.179   0.401   2.609
   76SL       O 1128   3.290   0.396   2.516
   76SL       C 1129   3.210   0.287   2.742
   76SL       C 1130   3.130   0.161   2.707
   76SL       C 1131   3.001   0.210   2.642
   76SL       C 1132   3.041   0.312   2.538
   76SL       H 1133   3.317   0.267   2.751
   76SL       H 1134   3.172   0.331   2.835
   76SL       H 1135   3.111   0.100   2.795
   76SL       H 1136   3.186   0.101   2.634
   76SL       H 1137   2.938   0.258   2.720
   76SL       H 1138   2.943   0.129   2.599
   76SL       H 1139   2.961   0.383   2.514
   76SL       H 1140   3.077   0.263   2.447
   77SL       O 1141   1.118   2.964   3.077
   77SL       S 1142   0.983   2.937   3.120
   77SL       O 1143   0.872   3.023   3.084
   77SL       C 1144   0.942   2.768   3.078
   77SL       C 1145   0.895   2.705   3.208
   77SL       C 1146   0.982   2.764   3.319
   77SL       C 1147   0.982   2.913   3.297
   77SL       H 1148   0.866   2.767   3.000
   77SL       H 1149   1.033   2.719   3.042
   77SL       H 1150   0.902   2.596   3.204
   77SL       H 1151   0.790   2.731   3.226
   77SL       H 1152   1.085   2.724   3.308
   77SL       H 1153   0.946   2.737   3.418
   77SL       H 1154   1.069   2.963   3.341
   77SL       H 1155   0.890   2.958   3.336
   78SL       O 1156   2.518   1.057   2.256
   78SL       S 1157   2.490   1.000   2.127
   78SL       O 1158   2.368   1.031   2.054
   78SL       C 1159   2.630   1.028   2.020
   78SL       C 1160   2.667   0.890   1.966
   78SL       C 1161   2.645   0.792   2.081
   78SL       C 1162   2.507   0.823   2.136
   78SL       H 1163   2.603   1.099   1.941
   78SL       H 1164   2.711   1.069   2.081
   78SL       H 1165   2.771   0.888   1.931
   78SL       H 1166   2.602   0.864   1.882
   78SL       H 1167   2.721   0.810   2.159
   78SL       H 1168   2.654   0.688   2.049
   78SL       H 1169   2.494   0.790   2.240
   78SL       H 1170   2.429   0.778   2.073
   79SL       O 1171   2.660   3.229   3.457
   79SL       S 1172   2.680   3.097   3.513
   79SL       O 1173   2.603   2.983   3.468
   79SL       C 1174   2.853   3.057   3.504
   79SL       C 1175   2.892   3.019   3.647
   79SL       C 1176   2.813   3.112   3.739
   79SL       C 1177   2.670   3.107   3.691
   79SL       H 1178   2.870   2.976   3.433
   79SL       H 1179   2.907   3.147   3.472
   79SL       H 1180   3.000   3.028   3.663
   79SL       H 1181   2.863   2.914   3.667
   79SL       H 1182   2.853   3.214   3.730
   79SL       H 1183   2.822   3.082   3.844
   79SL       H 1184   2.612   3.196   3.719
   79SL       H 1185   2.619   3.017   3.726
   80SL       O 1186   0.220   0.385   0.127
   80SL       S 1187   0.289   0.425   0.247
   80SL       O 1188   0.225   0.504   0.350
   80SL       C 1189   0.361   0.280   0.322
   80SL       C 1190   0.509   0.314   0.340
   80SL       C 1191   0.549   0.396   0.217
   80SL       C 1192   0.443   0.503   0.202
   80SL       H 1193   0.311   0.258   0.416
   80SL       H 1194   0.349   0.196   0.253
   80SL       H 1195   0.570   0.224   0.350
   80SL       H 1196   0.522   0.375   0.431
   80SL       H 1197   0.550   0.331   0.129
   80SL       H 1198   0.648   0.439   0.228
   80SL       H 1199   0.436   0.542   0.100
   80SL       H 1200   0.460   0.586   0.272
   81SL       O 1201   2.756   3.403   1.569
   81SL       S 1202   2.752   3.523   1.489
   81SL       O 1203   2.749   3.519   1.344
   81SL       C 1204   2.618   3.626   1.547
   81SL       C 1205   2.682   3.762   1.575
   81SL       C 1206   2.820   3.733   1.633
   81SL       C 1207   2.884   3.632   1.540
   81SL       H 1208   2.539   3.631   1.472
   81SL       H 1209   2.579   3.582   1.639
   81SL       H 1210   2.621   3.821   1.644
   81SL       H 1211   2.692   3.818   1.482
   81SL       H 1212   2.809   3.690   1.734
   81SL       H 1213   2.881   3.823   1.642
   81SL       H 1214   2.963   3.574   1.588
   81SL       H 1215   2.923   3.681   1.450
   82SL       O 1216   0.982   1.244   2.532
   82SL       S 1217   1.005   1.326   2.649
   82SL       O 1218   0.988   1.470   2.645
   82SL       C 1219   0.912   1.259   2.785
   82SL       C 1220   1.014   1.240   2.897
   82SL       C 1221   1.143   1.194   2.829
   82SL       C 1222   1.167   1.290   2.715
   82SL       H 1223   0.832   1.328   2.813
   82SL       H 1224   0.870   1.163   2.754
   82SL       H 1225   0.979   1.167   2.971
   82SL       H 1226   1.032   1.335   2.949
   82SL       H 1227   1.129   1.091   2.791
   82SL       H 1228   1.228   1.192   2.899
   82SL       H 1229   1.230   1.247   2.636
   82SL       H 1230   1.210   1.384   2.750
   83SL       O 1231   3.969   3.621   0.852
   83SL       S 1232   3.954   3.499   0.927
   83SL       O 1233   4.060   3.448   1.013
   83SL       C 1234   3.803   3.508   1.022
   83SL       C 1235   3.725   3.382   0.985
   83SL       C 1236   3.751   3.358   0.836
   83SL       C 1237   3.901   3.369   0.817
   83SL       H 1238   3.825   3.513   1.129
   83SL       H 1239   3.749   3.597   0.991
   83SL       H 1240   3.619   3.393   1.006
   83SL       H 1241   3.763   3.296   1.043
   83SL       H 1242   3.700   3.436   0.777
   83SL       H 1243   3.713   3.262   0.803
   83SL       H 1244   3.930   3.394   0.715
   83SL       H 1245   3.951   3.276   0.848
   84SL       O 1246   2.939   2.901   3.885
   84SL       S 1247   3.009   2.966   3.993
   84SL       O 1248   2.945   2.994   4.120
   84SL       C 1249   3.162   2.878   4.023
   84SL       C 1250   3.271   2.985   4.016
   84SL       C 1251   3.229   3.081   3.905
   84SL       C 1252   3.084   3.116   3.932
   84SL       H 1253   3.158   2.828   4.120
   84SL       H 1254   3.174   2.804   3.943
   84SL       H 1255   3.369   2.940   3.996
   84SL       H 1256   3.277   3.039   4.111
   84SL       H 1257   3.238   3.030   3.807
   84SL       H 1258   3.292   3.170   3.902
   84SL       H 1259   3.031   3.150   3.843
   84SL       H 1260   3.077   3.191   4.011
   85SL       O 1261   2.113   3.265   2.597
   85SL       S 1262   2.176   3.339   2.704
   85SL       O 1263   2.141   3.317   2.843
   85SL       C 1264   2.353   3.326   2.686
   85SL       C 1265   2.403   3.470   2.686
   85SL       C 1266   2.299   3.551   2.609
   85SL       C 1267   2.165   3.513   2.668
   85SL       H 1268   2.395   3.266   2.768
   85SL       H 1269   2.374   3.277   2.590
   85SL       H 1270   2.502   3.477   2.640
   85SL       H 1271   2.411   3.507   2.789
   85SL       H 1272   2.303   3.524   2.503
   85SL       H 1273   2.318   3.658   2.617
   85SL       H 1274   2.082   3.532   2.600
   85SL       H 1275   2.148   3.565   2.763
   86SL       O 1276   0.096   1.656   0.381
   86SL       S 1277   0.179   1.765   0.336
   86SL       O 1278   0.134   1.903   0.341
   86SL       C 1279   0.338   1.754   0.417
   86SL       C 1280   0.440   1.755   0.303
   86SL       C 1281   0.378   1.676   0.189
   86SL       C 1282   0.238   1.730   0.171
   86SL       H 1283   0.351   1.837   0.486
   86SL       H 1284   0.342   1.659   0.471
   86SL       H 1285   0.536   1.713   0.335
   86SL       H 1286   0.458   1.859   0.271
   86SL       H 1287   0.374   1.569   0.217
   86SL       H 1288   0.436   1.684   0.097
   86SL       H 1289   0.170   1.659   0.123
   86SL       H 1290   0.239   1.824   0.115
   87SL       O 1291   1.143   1.607   0.654
   87SL       S 1292   1.172   1.498   0.563
   87SL       O 1293   1.173   1.517   0.419
   87SL       C 1294   1.326   1.423   0.612
   87SL       C 1295   1.294   1.274   0.626
   87SL       C 1296   1.153   1.267   0.686
   87SL       C 1297   1.068   1.359   0.602
   87SL       H 1298   1.403   1.442   0.537
   87SL       H 1299   1.356   1.465   0.708
   87SL       H 1300   1.367   1.223   0.690
   87SL       H 1301   1.295   1.225   0.528
   87SL       H 1302   1.156   1.301   0.790
   87SL       H 1303   1.114   1.165   0.686
   87SL       H 1304   0.979   1.394   0.655
   87SL       H 1305   1.039   1.312   0.508
   88SL       O 1306   3.258   3.104   1.174
   88SL       S 1307   3.355   3.128   1.070
   88SL       O 1308   3.345   3.240   0.979
   88SL       C 1309   3.518   3.127   1.144
   88SL       C 1310   3.598   3.025   1.063
   88SL       C 1311   3.501   2.912   1.030
   88SL       C 1312   3.376   2.978   0.975
   88SL       H 1313   3.561   3.227   1.140
   88SL       H 1314   3.508   3.095   1.248
   88SL       H 1315   3.684   2.989   1.120
   88SL       H 1316   3.634   3.071   0.971
   88SL       H 1317   3.477   2.856   1.122
   88SL       H 1318   3.544   2.841   0.959
   88SL       H 1319   3.287   2.916   0.984
   88SL       H 1320   3.390   3.007   0.870
   89SL       O 1321   3.424   1.091   1.669
   89SL       S 1322   3.332   1.173   1.595
   89SL       O 1323   3.247   1.119   1.491
   89SL       C 1324   3.232   1.265   1.710
   89SL       C 1325   3.247   1.411   1.668
   89SL       C 1326   3.392   1.428   1.624
   89SL       C 1327   3.420   1.314   1.528
   89SL       H 1328   3.128   1.230   1.706
   89SL       H 1329   3.273   1.249   1.811
   89SL       H 1330   3.221   1.479   1.750
   89SL       H 1331   3.179   1.433   1.584
   89SL       H 1332   3.458   1.421   1.712
   89SL       H 1333   3.409   1.525   1.577
   89SL       H 1334   3.526   1.290   1.520
   89SL       H 1335   3.379   1.335   1.429
   90SL       O 1336   1.860   3.151   0.665
   90SL       S 1337   1.854   3.158   0.809
   90SL       O 1338   1.801   3.050   0.890
   90SL       C 1339   2.015   3.203   0.870
   90SL       C 1340   1.992   3.325   0.958
   90SL       C 1341   1.884   3.407   0.889
   90SL       C 1342   1.773   3.310   0.856
   90SL       H 1343   2.059   3.119   0.925
   90SL       H 1344   2.078   3.228   0.784
   90SL       H 1345   2.085   3.383   0.971
   90SL       H 1346   1.958   3.294   1.058
   90SL       H 1347   1.925   3.451   0.797
   90SL       H 1348   1.848   3.489   0.952
   90SL       H 1349   1.709   3.345   0.774
   90SL       H 1350   1.711   3.289   0.944
   91SL       O 1351   1.071   4.004   2.624
   91SL       S 1352   0.977   3.921   2.695
   91SL       O 1353   0.912   3.808   2.633
   91SL       C 1354   1.052   3.868   2.848
   91SL       C 1355   0.953   3.908   2.957
   91SL       C 1356   0.894   4.042   2.914
   91SL       C 1357   0.852   4.025   2.769
   91SL       H 1358   1.070   3.761   2.845
   91SL       H 1359   1.146   3.922   2.860
   91SL       H 1360   1.001   3.915   3.055
   91SL       H 1361   0.873   3.833   2.964
   91SL       H 1362   0.972   4.120   2.922
   91SL       H 1363   0.810   4.073   2.977
   91SL       H 1364   0.846   4.120   2.715
   91SL       H 1365   0.756   3.972   2.762
   92SL       O 1366   1.380   3.180   2.718
   92SL       S 1367   1.273   3.151   2.811
   92SL       O 1368   1.297   3.141   2.953
   92SL       C 1369   1.141   3.267   2.782
   92SL       C 1370   1.017   3.180   2.761
   92SL       C 1371   1.063   3.057   2.684
   92SL       C 1372   1.186   3.006   2.757
   92SL       H 1373   1.131   3.335   2.867
   92SL       H 1374   1.164   3.323   2.691
   92SL       H 1375   0.938   3.234   2.708
   92SL       H 1376   0.976   3.149   2.859
   92SL       H 1377   1.089   3.086   2.581
   92SL       H 1378   0.985   2.980   2.678
   92SL       H 1379   1.251   2.945   2.693
   92SL       H 1380   1.158   2.949   2.846
   93SL       O 1381   3.052   1.783   3.267
   93SL       S 1382   3.120   1.829   3.386
   93SL       O 1383   3.078   1.787   3.519
   93SL       C 1384   3.294   1.798   3.368
   93SL       C 1385   3.361   1.933   3.394
   93SL       C 1386   3.269   2.038   3.332
   93SL       C 1387   3.130   2.007   3.382
   93SL       H 1388   3.326   1.721   3.439
   93SL       H 1389   3.313   1.765   3.266
   93SL       H 1390   3.462   1.936   3.351
   93SL       H 1391   3.370   1.950   3.502
   93SL       H 1392   3.273   2.030   3.222
   93SL       H 1393   3.300   2.139   3.359
   93SL       H 1394   3.051   2.047   3.317
   93SL       H 1395   3.116   2.043   3.484
   94SL       O 1396   1.305   0.506   0.544
   94SL       S 1397   1.178   0.551   0.597
   94SL       O 1398   1.099   0.470   0.687
   94SL       C 1399   1.202   0.712   0.669
   94SL       C 1400   1.097   0.801   0.603
   94SL       C 1401   1.089   0.755   0.457
   94SL       C 1402   1.075   0.605   0.462
   94SL       H 1403   1.190   0.707   0.778
   94SL       H 1404   1.303   0.746   0.644
   94SL       H 1405   1.124   0.907   0.610
   94SL       H 1406   1.000   0.788   0.651
   94SL       H 1407   1.181   0.783   0.404
   94SL       H 1408   1.005   0.802   0.404
   94SL       H 1409   1.107   0.556   0.369
   94SL       H 1410   0.972   0.576   0.485
   95SL       O 1411   0.694   1.297   0.317
   95SL       S 1412   0.656   1.432   0.353
   95SL       O 1413   0.637   1.535   0.253
   95SL       C 1414   0.511   1.425   0.457
   95SL       C 1415   0.548   1.504   0.582
   95SL       C 1416   0.695   1.474   0.610
   95SL       C 1417   0.768   1.493   0.478
   95SL       H 1418   0.425   1.466   0.404
   95SL       H 1419   0.493   1.320   0.482
   95SL       H 1420   0.484   1.477   0.667
   95SL       H 1421   0.536   1.612   0.563
   95SL       H 1422   0.705   1.370   0.644
   95SL       H 1423   0.736   1.538   0.688
   95SL       H 1424   0.862   1.438   0.473
   95SL       H 1425   0.786   1.599   0.458
   96SL       O 1426   2.117   0.544   2.698
   96SL       S 1427   2.135   0.679   2.746
   96SL       O 1428   2.175   0.708   2.882
   96SL       C 1429   2.244   0.765   2.634
   96SL       C 1430   2.168   0.891   2.593
   96SL       C 1431   2.021   0.850   2.581
   96SL       C 1432   1.988   0.774   2.708
   96SL       H 1433   2.339   0.788   2.683
   96SL       H 1434   2.261   0.701   2.547
   96SL       H 1435   2.206   0.933   2.500
   96SL       H 1436   2.178   0.968   2.671
   96SL       H 1437   2.009   0.785   2.493
   96SL       H 1438   1.955   0.936   2.568
   96SL       H 1439   1.903   0.706   2.696
   96SL       H 1440   1.970   0.842   2.791
   97SL       O 1441   2.808   3.778   1.287
   97SL       S 1442   2.895   3.889   1.320
   97SL       O 1443   2.909   3.937   1.456
   97SL       C 1444   3.057   3.855   1.254
   97SL       C 1445   3.091   3.978   1.170
   97SL       C 1446   2.961   4.022   1.103
   97SL       C 1447   2.857   4.026   1.213
   97SL       H 1448   3.128   3.839   1.335
   97SL       H 1449   3.050   3.766   1.191
   97SL       H 1450   3.169   3.956   1.096
   97SL       H 1451   3.129   4.059   1.235
   97SL       H 1452   2.932   3.947   1.027
   97SL       H 1453   2.971   4.118   1.053
   97SL       H 1454   2.755   4.017   1.176
   97SL       H 1455   2.867   4.118   1.273
   98SL       O 1456   2.267   2.346   0.700
   98SL       S 1457   2.220   2.219   0.650
   98SL       O 1458   2.080   2.194   0.623
   98SL       C 1459   2.315   2.177   0.505
   98SL       C 1460   2.370   2.037   0.533
   98SL       C 1461   2.404   2.034   0.682
   98SL       C 1462   2.283   2.088   0.754
   98SL       H 1463   2.252   2.180   0.416
   98SL       H 1464   2.397   2.249   0.496
   98SL       H 1465   2.457   2.015   0.471
   98SL       H 1466   2.293   1.961   0.511
   98SL       H 1467   2.492   2.098   0.701
   98SL       H 1468   2.429   1.933   0.716
   98SL       H 1469   2.306   2.129   0.853
   98SL       H 1470   2.205   2.012   0.762
   99SL       O 1471   0.868   0.719   2.796
   99SL       S 1472   0.907   0.843   2.859
   99SL       O 1473   0.957   0.955   2.783
   99SL       C 1474   0.773   0.897   2.963
   99SL       C 1475   0.836   0.919   3.101
   99SL       C 1476   0.939   0.808   3.118
   99SL       C 1477   1.022   0.808   2.991
   99SL       H 1478   0.728   0.988   2.922
   99SL       H 1479   0.698   0.818   2.967
   99SL       H 1480   0.760   0.917   3.180
   99SL       H 1481   0.886   1.017   3.104
   99SL       H 1482   0.887   0.712   3.130
   99SL       H 1483   1.001   0.824   3.207
   99SL       H 1484   1.071   0.712   2.973
   99SL       H 1485   1.096   0.888   2.993
  100SL       O 1486   2.669   3.187   1.065
  100SL       S 1487   2.781   3.189   0.974
  100SL       O 1488   2.790   3.097   0.863
  100SL       C 1489   2.802   3.355   0.914
  100SL       C 1490   2.948   3.389   0.943
  100SL       C 1491   2.981   3.325   1.077
  100SL       C 1492   2.932   3.182   1.068
  100SL       H 1493   2.778   3.360   0.807
  100SL       H 1494   2.735   3.421   0.970
  100SL       H 1495   2.964   3.498   0.945
  100SL       H 1496   3.013   3.347   0.865
  100SL       H 1497   2.927   3.378   1.157
  100SL       H 1498   3.088   3.330   1.100
  100SL       H 1499   2.913   3.137   1.166
  100SL       H 1500   3.003   3.120   1.012
  101SL       O 1501   3.691   1.225   2.541
  101SL       S 1502   3.638   1.358   2.560
  101SL       O 1503   3.530   1.410   2.479
  101SL       C 1504   3.595   1.377   2.732
  101SL       C 1505   3.668   1.503   2.778
  101SL       C 1506   3.803   1.503   2.706
  101SL       C 1507   3.773   1.475   2.560
  101SL       H 1508   3.487   1.384   2.743
  101SL       H 1509   3.632   1.289   2.786
  101SL       H 1510   3.680   1.505   2.886
  101SL       H 1511   3.611   1.592   2.748
  101SL       H 1512   3.866   1.422   2.747
  101SL       H 1513   3.857   1.597   2.719
  101SL       H 1514   3.858   1.433   2.506
  101SL       H 1515   3.738   1.566   2.510
  102SL       O 1516   2.733   1.828   0.345
  102SL       S 1517   2.707   1.818   0.487
  102SL       O 1518   2.670   1.933   0.566
  102SL       C 1519   2.588   1.688   0.513
  102SL       C 1520   2.652   1.595   0.616
  102SL       C 1521   2.801   1.591   0.582
  102SL       C 1522   2.844   1.735   0.565
  102SL       H 1523   2.493   1.730   0.548
  102SL       H 1524   2.572   1.636   0.418
  102SL       H 1525   2.608   1.495   0.613
  102SL       H 1526   2.639   1.635   0.717
  102SL       H 1527   2.816   1.536   0.487
  102SL       H 1528   2.860   1.540   0.658
  102SL       H 1529   2.934   1.746   0.504
  102SL       H 1530   2.860   1.782   0.663
  103SL       O 1531   1.403   1.158   3.145
  103SL       S 1532   1.413   1.300   3.121
  103SL       O 1533   1.507   1.355   3.025
  103SL       C 1534   1.250   1.363   3.086
  103SL       C 1535   1.231   1.479   3.184
  103SL       C 1536   1.298   1.435   3.315
  103SL       C 1537   1.435   1.384   3.276
  103SL       H 1538   1.244   1.396   2.982
  103SL       H 1539   1.178   1.284   3.105
  103SL       H 1540   1.125   1.501   3.199
  103SL       H 1541   1.280   1.569   3.146
  103SL       H 1542   1.238   1.354   3.360
  103SL       H 1543   1.303   1.516   3.387
  103SL       H 1544   1.477   1.314   3.350
  103SL       H 1545   1.504   1.467   3.260
  104SL       O 1546   1.706   2.067   4.070
  104SL       S 1547   1.636   2.127   3.959
  104SL       O 1548   1.629   2.063   3.829
  104SL       C 1549   1.470   2.167   4.012
  104SL       C 1550   1.453   2.315   3.978
  104SL       C 1551   1.588   2.381   4.006
  104SL       C 1552   1.692   2.295   3.938
  104SL       H 1553   1.398   2.104   3.961
  104SL       H 1554   1.464   2.151   4.120
  104SL       H 1555   1.373   2.360   4.037
  104SL       H 1556   1.428   2.327   3.872
  104SL       H 1557   1.606   2.383   4.115
  104SL       H 1558   1.591   2.484   3.971
  104SL       H 1559   1.792   2.306   3.981
  104SL       H 1560   1.695   2.315   3.831
  105SL       O 1561   1.575   2.789   1.086
  105SL       S 1562   1.583   2.888   1.191
  105SL       O 1563   1.562   2.854   1.330
  105SL       C 1564   1.738   2.974   1.175
  105SL       C 1565   1.701   3.122   1.170
  105SL       C 1566   1.571   3.130   1.089
  105SL       C 1567   1.479   3.026   1.149
  105SL       H 1568   1.804   2.951   1.259
  105SL       H 1569   1.785   2.943   1.081
  105SL       H 1570   1.780   3.182   1.124
  105SL       H 1571   1.684   3.160   1.271
  105SL       H 1572   1.592   3.106   0.984
  105SL       H 1573   1.526   3.230   1.093
  105SL       H 1574   1.401   2.993   1.079
  105SL       H 1575   1.433   3.062   1.241
  106SL       O 1576   2.542   2.283   1.228
  106SL       S 1577   2.453   2.240   1.122
  106SL       O 1578   2.431   2.100   1.094
  106SL       C 1579   2.296   2.321   1.143
  106SL       C 1580   2.268   2.388   1.009
  106SL       C 1581   2.402   2.439   0.958
  106SL       C 1582   2.499   2.323   0.971
  106SL       H 1583   2.219   2.248   1.171
  106SL       H 1584   2.307   2.396   1.223
  106SL       H 1585   2.195   2.469   1.020
  106SL       H 1586   2.227   2.315   0.939
  106SL       H 1587   2.436   2.523   1.021
  106SL       H 1588   2.396   2.475   0.855
  106SL       H 1589   2.603   2.354   0.976
  106SL       H 1590   2.486   2.252   0.889
  107SL       O 1591   0.917   2.840   0.306
  107SL       S 1592   0.934   2.712   0.242
  107SL       O 1593   0.931   2.697   0.098
  107SL       C 1594   1.083   2.637   0.305
  107SL       C 1595   1.041   2.499   0.354
  107SL       C 1596   0.902   2.517   0.415
  107SL       C 1597   0.821   2.594   0.314
  107SL       H 1598   1.159   2.632   0.226
  107SL       H 1599   1.120   2.698   0.388
  107SL       H 1600   1.112   2.458   0.426
  107SL       H 1601   1.035   2.429   0.269
  107SL       H 1602   0.911   2.574   0.509
  107SL       H 1603   0.855   2.421   0.439
  107SL       H 1604   0.736   2.648   0.359
  107SL       H 1605   0.785   2.529   0.234
  108SL       O 1606   2.640   1.389   3.240
  108SL       S 1607   2.584   1.423   3.112
  108SL       O 1608   2.668   1.447   2.996
  108SL       C 1609   2.459   1.303   3.070
  108SL       C 1610   2.334   1.385   3.039
  108SL       C 1611   2.334   1.501   3.138
  108SL       C 1612   2.473   1.561   3.132
  108SL       H 1613   2.492   1.242   2.985
  108SL       H 1614   2.443   1.239   3.157
  108SL       H 1615   2.244   1.324   3.048
  108SL       H 1616   2.339   1.423   2.937
  108SL       H 1617   2.314   1.463   3.239
  108SL       H 1618   2.257   1.575   3.114
  108SL       H 1619   2.500   1.617   3.222
  108SL       H 1620   2.484   1.626   3.044
  109SL       O 1621   3.613   2.250   4.015
  109SL       S 1622   3.580   2.165   3.903
  109SL       O 1623   3.638   2.033   3.888
  109SL       C 1624   3.403   2.154   3.890
  109SL       C 1625   3.371   2.194   3.746
  109SL       C 1626   3.469   2.306   3.711
  109SL       C 1627   3.606   2.256   3.752
  109SL       H 1628   3.370   2.052   3.914
  109SL       H 1629   3.359   2.225   3.961
  109SL       H 1630   3.267   2.226   3.736
  109SL       H 1631   3.387   2.108   3.679
  109SL       H 1632   3.442   2.396   3.767
  109SL       H 1633   3.465   2.331   3.604
  109SL       H 1634   3.677   2.338   3.770
  109SL       H 1635   3.647   2.187   3.678
  110SL       O 1636   2.803   0.331   3.183
  110SL       S 1637   2.720   0.420   3.261
  110SL       O 1638   2.738   0.437   3.404
  110SL       C 1639   2.722   0.580   3.183
  110SL       C 1640   2.575   0.616   3.163
  110SL       C 1641   2.504   0.486   3.126
  110SL       C 1642   2.549   0.384   3.228
  110SL       H 1643   2.775   0.652   3.246
  110SL       H 1644   2.773   0.571   3.087
  110SL       H 1645   2.563   0.692   3.085
  110SL       H 1646   2.533   0.656   3.256
  110SL       H 1647   2.536   0.455   3.025
  110SL       H 1648   2.396   0.497   3.124
  110SL       H 1649   2.539   0.281   3.193
  110SL       H 1650   2.494   0.396   3.322
  111SL       O 1651   1.791   0.529   0.921
  111SL       S 1652   1.698   0.602   0.838
  111SL       O 1653   1.566   0.552   0.809
  111SL       C 1654   1.684   0.768   0.902
  111SL       C 1655   1.714   0.859   0.783
  111SL       C 1656   1.824   0.789   0.703
  111SL       C 1657   1.779   0.646   0.686
  111SL       H 1658   1.584   0.784   0.944
  111SL       H 1659   1.760   0.781   0.980
  111SL       H 1660   1.745   0.959   0.816
  111SL       H 1661   1.624   0.870   0.721
  111SL       H 1662   1.918   0.793   0.760
  111SL       H 1663   1.842   0.838   0.607
  111SL       H 1664   1.862   0.577   0.667
  111SL       H 1665   1.705   0.638   0.605
  112SL       O 1666   3.649   1.175   2.978
  112SL       S 1667   3.700   1.044   2.946
  112SL       O 1668   3.693   0.934   3.040
  112SL       C 1669   3.629   0.993   2.791
  112SL       C 1670   3.748   0.955   2.703
  112SL       C 1671   3.858   1.056   2.736
  112SL       C 1672   3.867   1.060   2.887
  112SL       H 1673   3.560   0.909   2.806
  112SL       H 1674   3.574   1.077   2.748
  112SL       H 1675   3.722   0.958   2.597
  112SL       H 1676   3.782   0.854   2.727
  112SL       H 1677   3.829   1.155   2.697
  112SL       H 1678   3.953   1.029   2.690
  112SL       H 1679   3.911   1.152   2.925
  112SL       H 1680   3.924   0.974   2.925
  113SL       O 1681   3.086   0.434   2.308
  113SL       S 1682   3.071   0.574   2.277
  113SL       O 1683   3.125   0.631   2.154
  113SL       C 1684   2.899   0.617   2.291
  113SL       C 1685   2.896   0.737   2.385
  113SL       C 1686   3.003   0.711   2.491
  113SL       C 1687   3.128   0.671   2.415
  113SL       H 1688   2.858   0.640   2.192
  113SL       H 1689   2.846   0.532   2.334
  113SL       H 1690   2.797   0.750   2.430
  113SL       H 1691   2.920   0.829   2.330
  113SL       H 1692   2.971   0.627   2.556
  113SL       H 1693   3.020   0.797   2.554
  113SL       H 1694   3.198   0.613   2.475
  113SL       H 1695   3.179   0.760   2.374
  114SL       O 1696   3.660   0.646   1.829
  114SL       S 1697   3.606   0.725   1.937
  114SL       O 1698   3.631   0.693   2.076
  114SL       C 1699   3.649   0.896   1.909
  114SL       C 1700   3.517   0.972   1.915
  114SL       C 1701   3.413   0.881   1.849
  114SL       C 1702   3.430   0.745   1.913
  114SL       H 1703   3.721   0.930   1.985
  114SL       H 1704   3.694   0.904   1.810
  114SL       H 1705   3.524   1.069   1.864
  114SL       H 1706   3.489   0.991   2.019
  114SL       H 1707   3.433   0.876   1.741
  114SL       H 1708   3.312   0.919   1.862
  114SL       H 1709   3.393   0.664   1.850
  114SL       H 1710   3.383   0.741   2.011
  115SL       O 1711   2.014   1.483   1.473
  115SL       S 1712   1.907   1.477   1.570
  115SL       O 1713   1.911   1.387   1.683
  115SL       C 1714   1.874   1.642   1.628
  115SL       C 1715   1.724   1.663   1.607
  115SL       C 1716   1.690   1.593   1.475
  115SL       C 1717   1.752   1.455   1.484
  115SL       H 1718   1.903   1.651   1.733
  115SL       H 1719   1.932   1.712   1.568
  115SL       H 1720   1.699   1.770   1.604
  115SL       H 1721   1.668   1.617   1.689
  115SL       H 1722   1.735   1.650   1.391
  115SL       H 1723   1.583   1.589   1.458
  115SL       H 1724   1.770   1.410   1.386
  115SL       H 1725   1.690   1.389   1.544
  116SL       O 1726   2.068   1.465   2.744
  116SL       S 1727   2.024   1.585   2.677
  116SL       O 1728   2.052   1.608   2.536
  116SL       C 1729   1.850   1.607   2.707
  116SL       C 1730   1.837   1.748   2.762
  116SL       C 1731   1.959   1.770   2.852
  116SL       C 1732   2.079   1.727   2.770
  116SL       H 1733   1.794   1.593   2.614
  116SL       H 1734   1.818   1.533   2.781
  116SL       H 1735   1.743   1.761   2.818
  116SL       H 1736   1.838   1.821   2.680
  116SL       H 1737   1.949   1.707   2.942
  116SL       H 1738   1.967   1.874   2.884
  116SL       H 1739   2.165   1.700   2.832
  116SL       H 1740   2.108   1.805   2.699
  117SL       O 1741   3.316   0.221   2.966
  117SL       S 1742   3.439   0.273   3.021
  117SL       O 1743   3.489   0.233   3.151
  117SL       C 1744   3.569   0.250   2.901
  117SL       C 1745   3.631   0.388   2.882
  117SL       C 1746   3.515   0.487   2.889
  117SL       C 1747   3.436   0.451   3.013
  117SL       H 1748   3.641   0.176   2.937
  117SL       H 1749   3.523   0.215   2.808
  117SL       H 1750   3.685   0.395   2.787
  117SL       H 1751   3.702   0.408   2.963
  117SL       H 1752   3.452   0.477   2.799
  117SL       H 1753   3.550   0.591   2.893
  117SL       H 1754   3.332   0.486   3.009
  117SL       H 1755   3.485   0.489   3.103
  118SL       O 1756   3.227   1.677   3.944
  118SL       S 1757   3.271   1.687   3.807
  118SL       O 1758   3.178   1.707   3.697
  118SL       C 1759   3.400   1.810   3.797
  118SL       C 1760   3.517   1.740   3.730
  118SL       C 1761   3.517   1.597   3.783
  118SL       C 1762   3.375   1.547   3.768
  118SL       H 1763   3.364   1.897   3.741
  118SL       H 1764   3.426   1.840   3.899
  118SL       H 1765   3.612   1.791   3.751
  118SL       H 1766   3.503   1.739   3.621
  118SL       H 1767   3.547   1.597   3.889
  118SL       H 1768   3.588   1.534   3.729
  118SL       H 1769   3.352   1.464   3.836
  118SL       H 1770   3.354   1.517   3.665
  119SL       O 1771   0.402   0.145   3.064
  119SL       S 1772   0.289   0.176   3.149
  119SL       O 1773   0.166   0.100   3.144
  119SL       C 1774   0.347   0.183   3.317
  119SL       C 1775   0.301   0.319   3.369
  119SL       C 1776   0.316   0.417   3.252
  119SL       C 1777   0.251   0.349   3.133
  119SL       H 1778   0.305   0.100   3.375
  119SL       H 1779   0.456   0.177   3.317
  119SL       H 1780   0.359   0.351   3.456
  119SL       H 1781   0.195   0.314   3.399
  119SL       H 1782   0.423   0.433   3.233
  119SL       H 1783   0.271   0.514   3.274
  119SL       H 1784   0.288   0.387   3.038
  119SL       H 1785   0.142   0.360   3.137
  120SL       O 1786   3.402   2.371   3.398
  120SL       S 1787   3.447   2.494   3.458
  120SL       O 1788   3.378   2.554   3.570
  120SL       C 1789   3.620   2.478   3.497
  120SL       C 1790   3.687   2.598   3.430
  120SL       C 1791   3.614   2.619   3.297
  120SL       C 1792   3.466   2.617   3.330
  120SL       H 1793   3.634   2.477   3.605
  120SL       H 1794   3.656   2.385   3.454
  120SL       H 1795   3.794   2.581   3.415
  120SL       H 1796   3.675   2.688   3.493
  120SL       H 1797   3.639   2.536   3.229
  120SL       H 1798   3.643   2.712   3.248
  120SL       H 1799   3.404   2.591   3.244
  120SL       H 1800   3.434   2.714   3.371
  121SL       O 1801   0.393   0.806   4.119
  121SL       S 1802   0.415   0.870   3.991
  121SL       O 1803   0.461   0.796   3.875
  121SL       C 1804   0.269   0.961   3.947
  121SL       C 1805   0.317   1.103   3.918
  121SL       C 1806   0.428   1.132   4.019
  121SL       C 1807   0.521   1.012   4.014
  121SL       H 1808   0.220   0.915   3.861
  121SL       H 1809   0.201   0.960   4.033
  121SL       H 1810   0.235   1.176   3.926
  121SL       H 1811   0.358   1.109   3.816
  121SL       H 1812   0.384   1.141   4.120
  121SL       H 1813   0.480   1.225   3.998
  121SL       H 1814   0.580   1.000   4.106
  121SL       H 1815   0.588   1.018   3.928
  122SL       O 1816   1.124   0.378   1.017
  122SL       S 1817   1.238   0.398   0.931
  122SL       O 1818   1.271   0.529   0.877
  122SL       C 1819   1.382   0.330   1.011
  122SL       C 1820   1.443   0.235   0.909
  122SL       C 1821   1.325   0.168   0.838
  122SL       C 1822   1.232   0.281   0.797
  122SL       H 1823   1.450   0.411   1.040
  122SL       H 1824   1.349   0.276   1.100
  122SL       H 1825   1.508   0.161   0.957
  122SL       H 1826   1.503   0.291   0.836
  122SL       H 1827   1.274   0.100   0.907
  122SL       H 1828   1.358   0.110   0.751
  122SL       H 1829   1.129   0.247   0.782
  122SL       H 1830   1.268   0.331   0.707
  123SL       O 1831   2.523   2.284   1.447
  123SL       S 1832   2.515   2.185   1.551
  123SL       O 1833   2.542   2.216   1.690
  123SL       C 1834   2.356   2.105   1.540
  123SL       C 1835   2.387   1.955   1.532
  123SL       C 1836   2.513   1.943   1.447
  123SL       C 1837   2.612   2.043   1.504
  123SL       H 1838   2.294   2.130   1.627
  123SL       H 1839   2.307   2.139   1.448
  123SL       H 1840   2.303   1.900   1.488
  123SL       H 1841   2.406   1.916   1.632
  123SL       H 1842   2.489   1.969   1.342
  123SL       H 1843   2.553   1.841   1.448
  123SL       H 1844   2.688   2.073   1.432
  123SL       H 1845   2.659   2.003   1.594
  124SL       O 1846   2.086   2.363   3.812
  124SL       S 1847   2.071   2.308   3.945
  124SL       O 1848   1.991   2.373   4.046
  124SL       C 1849   2.020   2.138   3.931
  124SL       C 1850   2.121   2.059   4.014
  124SL       C 1851   2.256   2.127   3.992
  124SL       C 1852   2.233   2.275   4.013
  124SL       H 1853   1.918   2.126   3.968
  124SL       H 1854   2.026   2.109   3.826
  124SL       H 1855   2.123   1.953   3.984
  124SL       H 1856   2.094   2.064   4.120
  124SL       H 1857   2.290   2.108   3.888
  124SL       H 1858   2.333   2.088   4.059
  124SL       H 1859   2.307   2.337   3.963
  124SL       H 1860   2.230   2.299   4.120
  125SL       O 1861   2.044   1.945   0.394
  125SL       S 1862   1.967   1.910   0.511
  125SL       O 1863   1.973   1.989   0.633
  125SL       C 1864   1.796   1.892   0.463
  125SL       C 1865   1.755   1.754   0.513
  125SL       C 1866   1.877   1.664   0.493
  125SL       C 1867   1.995   1.739   0.551
  125SL       H 1868   1.736   1.972   0.506
  125SL       H 1869   1.791   1.896   0.353
  125SL       H 1870   1.668   1.716   0.459
  125SL       H 1871   1.730   1.759   0.620
  125SL       H 1872   1.892   1.647   0.385
  125SL       H 1873   1.864   1.566   0.541
  125SL       H 1874   2.091   1.707   0.510
  125SL       H 1875   1.997   1.730   0.660
  126SL       O 1876   4.011   2.213   2.611
  126SL       S 1877   3.975   2.120   2.716
  126SL       O 1878   4.005   2.146   2.855
  126SL       C 1879   3.802   2.082   2.700
  126SL       C 1880   3.796   1.929   2.694
  126SL       C 1881   3.917   1.885   2.614
  126SL       C 1882   4.036   1.958   2.673
  126SL       H 1883   3.746   2.123   2.785
  126SL       H 1884   3.766   2.126   2.607
  126SL       H 1885   3.702   1.895   2.649
  126SL       H 1886   3.801   1.888   2.796
  126SL       H 1887   3.904   1.914   2.508
  126SL       H 1888   3.931   1.777   2.617
  126SL       H 1889   4.120   1.968   2.603
  126SL       H 1890   4.070   1.910   2.765
  127SL       O 1891   2.271   0.109   0.756
  127SL       S 1892   2.352   0.226   0.784
  127SL       O 1893   2.492   0.215   0.821
  127SL       C 1894   2.337   0.339   0.647
  127SL       C 1895   2.295   0.472   0.710
  127SL       C 1896   2.200   0.437   0.824
  127SL       C 1897   2.268   0.328   0.904
  127SL       H 1898   2.432   0.346   0.593
  127SL       H 1899   2.259   0.302   0.580
  127SL       H 1900   2.248   0.538   0.637
  127SL       H 1901   2.383   0.524   0.750
  127SL       H 1902   2.105   0.399   0.782
  127SL       H 1903   2.176   0.523   0.886
  127SL       H 1904   2.198   0.267   0.962
  127SL       H 1905   2.344   0.370   0.971
  128SL       O 1906   2.394   0.899   0.332
  128SL       S 1907   2.493   0.876   0.435
  128SL       O 1908   2.536   0.981   0.525
  128SL       C 1909   2.443   0.734   0.530
  128SL       C 1910   2.563   0.640   0.528
  128SL       C 1911   2.623   0.652   0.388
  128SL       C 1912   2.637   0.800   0.361
  128SL       H 1913   2.415   0.765   0.632
  128SL       H 1914   2.357   0.688   0.481
  128SL       H 1915   2.533   0.537   0.550
  128SL       H 1916   2.636   0.671   0.603
  128SL       H 1917   2.555   0.606   0.315
  128SL       H 1918   2.719   0.601   0.381
  128SL       H 1919   2.641   0.824   0.255
  128SL       H 1920   2.725   0.841   0.412
  129SL       O 1921   1.414   1.854   0.978
  129SL       S 1922   1.345   1.884   0.855
  129SL       O 1923   1.202   1.864   0.841
  129SL       C 1924   1.386   2.049   0.804
  129SL       C 1925   1.436   2.036   0.661
  129SL       C 1926   1.516   1.905   0.656
  129SL       C 1927   1.427   1.800   0.720
  129SL       H 1928   1.298   2.114   0.812
  129SL       H 1929   1.466   2.086   0.870
  129SL       H 1930   1.498   2.122   0.631
  129SL       H 1931   1.352   2.030   0.591
  129SL       H 1932   1.609   1.917   0.713
  129SL       H 1933   1.543   1.878   0.553
  129SL       H 1934   1.484   1.715   0.759
  129SL       H 1935   1.350   1.766   0.650
  130SL       O 1936   1.957   2.546   3.910
  130SL       S 1937   1.875   2.634   3.989
  130SL       O 1938   1.826   2.597   4.120
  130SL       C 1939   1.956   2.793   3.999
  130SL       C 1940   1.853   2.894   3.952
  130SL       C 1941   1.776   2.827   3.838
  130SL       C 1942   1.737   2.690   3.890
  130SL       H 1943   1.989   2.811   4.102
  130SL       H 1944   2.042   2.791   3.932
  130SL       H 1945   1.900   2.987   3.919
  130SL       H 1946   1.783   2.918   4.034
  130SL       H 1947   1.842   2.817   3.751
  130SL       H 1948   1.689   2.885   3.808
  130SL       H 1949   1.718   2.618   3.810
  130SL       H 1950   1.649   2.696   3.955
  131SL       O 1951   0.518   1.479   0.936
  131SL       S 1952   0.384   1.440   0.974
  131SL       O 1953   0.338   1.451   1.111
  131SL       C 1954   0.268   1.524   0.867
  131SL       C 1955   0.180   1.413   0.811
  131SL       C 1956   0.272   1.293   0.787
  131SL       C 1957   0.351   1.275   0.915
  131SL       H 1958   0.211   1.598   0.924
  131SL       H 1959   0.324   1.573   0.788
  131SL       H 1960   0.131   1.444   0.718
  131SL       H 1961   0.102   1.385   0.883
  131SL       H 1962   0.340   1.315   0.704
  131SL       H 1963   0.217   1.203   0.761
  131SL       H 1964   0.445   1.222   0.901
  131SL       H 1965   0.291   1.224   0.992
  132SL       O 1966   3.786   0.757   3.939
  132SL       S 1967   3.649   0.713   3.926
  132SL       O 1968   3.540   0.783   3.991
  132SL       C 1969   3.611   0.696   3.753
  132SL       C 1970   3.557   0.554   3.738
  132SL       C 1971   3.638   0.467   3.833
  132SL       C 1972   3.638   0.540   3.966
  132SL       H 1973   3.539   0.772   3.722
  132SL       H 1974   3.704   0.708   3.696
  132SL       H 1975   3.564   0.519   3.635
  132SL       H 1976   3.451   0.551   3.767
  132SL       H 1977   3.741   0.458   3.795
  132SL       H 1978   3.597   0.367   3.843
  132SL       H 1979   3.723   0.512   4.030
  132SL       H 1980   3.544   0.524   4.020
  133SL       O 1981   2.358   0.101   2.036
  133SL       S 1982   2.336   0.156   1.904
  133SL       O 1983   2.238   0.100   1.813
  133SL       C 1984   2.306   0.331   1.921
  133SL       C 1985   2.407   0.397   1.826
  133SL       C 1986   2.535   0.314   1.836
  133SL       C 1987   2.492   0.170   1.820
  133SL       H 1988   2.203   0.354   1.895
  133SL       H 1989   2.326   0.360   2.024
  133SL       H 1990   2.424   0.502   1.854
  133SL       H 1991   2.369   0.395   1.724
  133SL       H 1992   2.581   0.330   1.935
  133SL       H 1993   2.608   0.344   1.760
  133SL       H 1994   2.564   0.099   1.863
  133SL       H 1995   2.475   0.146   1.714
  134SL       O 1996   2.228   3.836   1.579
  134SL       S 1997   2.279   3.966   1.541
  134SL       O 1998   2.272   4.080   1.631
  134SL       C 1999   2.447   3.946   1.485
  134SL       C 2000   2.451   4.011   1.348
  134SL       C 2001   2.317   3.979   1.281
  134SL       C 2002   2.211   4.012   1.383
  134SL       H 2003   2.516   3.993   1.556
  134SL       H 2004   2.469   3.839   1.478
  134SL       H 2005   2.536   3.975   1.288
  134SL       H 2006   2.461   4.120   1.358
  134SL       H 2007   2.314   3.871   1.257
  134SL       H 2008   2.303   4.034   1.188
  134SL       H 2009   2.117   3.958   1.367
  134SL       H 2010   2.192   4.120   1.386
  135SL       O 2011   1.532   2.929   2.907
  135SL       S 2012   1.630   2.836   2.958
  135SL       O 2013   1.607   2.758   3.078
  135SL       C 2014   1.678   2.727   2.826
  135SL       C 2015   1.831   2.737   2.820
  135SL       C 2016   1.865   2.883   2.850
  135SL       C 2017   1.787   2.920   2.974
  135SL       H 2018   1.643   2.626   2.846
  135SL       H 2019   1.634   2.765   2.733
  135SL       H 2020   1.869   2.705   2.723
  135SL       H 2021   1.875   2.672   2.897
  135SL       H 2022   1.834   2.946   2.765
  135SL       H 2023   1.972   2.897   2.864
  135SL       H 2024   1.770   3.028   2.983
  135SL       H 2025   1.836   2.882   3.064
  136SL       O 2026   3.443   4.120   2.521
  136SL       S 2027   3.441   3.997   2.596
  136SL       O 2028   3.317   3.933   2.637
  136SL       C 2029   3.542   3.877   2.512
  136SL       C 2030   3.641   3.827   2.617
  136SL       C 2031   3.677   3.949   2.702
  136SL       C 2032   3.546   4.014   2.740
  136SL       H 2033   3.480   3.797   2.471
  136SL       H 2034   3.594   3.928   2.430
  136SL       H 2035   3.730   3.783   2.570
  136SL       H 2036   3.594   3.751   2.679
  136SL       H 2037   3.738   4.019   2.642
  136SL       H 2038   3.735   3.921   2.790
  136SL       H 2039   3.556   4.120   2.765
  136SL       H 2040   3.498   3.960   2.822
  137SL       O 2041   1.310   2.223   3.133
  137SL       S 2042   1.367   2.319   3.225
  137SL       O 2043   1.307   2.449   3.246
  137SL       C 2044   1.390   2.239   3.383
  137SL       C 2045   1.536   2.263   3.418
  137SL       C 2046   1.614   2.252   3.287
  137SL       C 2047   1.540   2.340   3.188
  137SL       H 2048   1.321   2.282   3.457
  137SL       H 2049   1.370   2.132   3.370
  137SL       H 2050   1.572   2.190   3.492
  137SL       H 2051   1.549   2.363   3.461
  137SL       H 2052   1.614   2.147   3.253
  137SL       H 2053   1.718   2.283   3.298
  137SL       H 2054   1.559   2.312   3.084
  137SL       H 2055   1.565   2.445   3.203
  138SL       O 2056   3.038   2.013   2.886
  138SL       S 2057   2.988   1.920   2.985
  138SL       O 2058   2.989   1.951   3.126
  138SL       C 2059   2.823   1.871   2.937
  138SL       C 2060   2.827   1.718   2.936
  138SL       C 2061   2.965   1.679   2.882
  138SL       C 2062   3.065   1.761   2.960
  138SL       H 2063   2.750   1.911   3.008
  138SL       H 2064   2.804   1.910   2.837
  138SL       H 2065   2.746   1.677   2.874
  138SL       H 2066   2.815   1.679   3.038
  138SL       H 2067   2.970   1.705   2.775
  138SL       H 2068   2.983   1.572   2.891
  138SL       H 2069   3.160   1.774   2.908
  138SL       H 2070   3.082   1.717   3.059
  139SL       O 2071   0.466   0.550   3.666
  139SL       S 2072   0.410   0.499   3.790
  139SL       O 2073   0.305   0.569   3.860
  139SL       C 2074   0.361   0.330   3.764
  139SL       C 2075   0.430   0.252   3.876
  139SL       C 2076   0.567   0.316   3.894
  139SL       C 2077   0.543   0.465   3.904
  139SL       H 2078   0.252   0.321   3.768
  139SL       H 2079   0.397   0.298   3.666
  139SL       H 2080   0.438   0.145   3.851
  139SL       H 2081   0.373   0.260   3.969
  139SL       H 2082   0.630   0.293   3.806
  139SL       H 2083   0.619   0.278   3.982
  139SL       H 2084   0.631   0.524   3.878
  139SL       H 2085   0.508   0.492   4.004
  140SL       O 2086   3.237   3.846   2.043
  140SL       S 2087   3.146   3.904   2.138
  140SL       O 2088   3.191   3.995   2.242
  140SL       C 2089   3.011   3.981   2.049
  140SL       C 2090   2.885   3.921   2.110
  140SL       C 2091   2.917   3.775   2.140
  140SL       C 2092   3.049   3.775   2.214
  140SL       H 2093   3.016   4.089   2.060
  140SL       H 2094   3.020   3.953   1.944
  140SL       H 2095   2.799   3.930   2.042
  140SL       H 2096   2.859   3.973   2.203
  140SL       H 2097   2.927   3.719   2.045
  140SL       H 2098   2.838   3.726   2.198
  140SL       H 2099   3.102   3.680   2.207
  140SL       H 2100   3.035   3.802   2.319
  141SL       O 2101   1.904   3.653   1.152
  141SL       S 2102   2.021   3.721   1.203
  141SL       O 2103   2.042   3.863   1.183
  141SL       C 2104   2.038   3.684   1.376
  141SL       C 2105   2.180   3.630   1.392
  141SL       C 2106   2.208   3.547   1.267
  141SL       C 2107   2.167   3.634   1.149
  141SL       H 2108   2.020   3.773   1.436
  141SL       H 2109   1.964   3.607   1.402
  141SL       H 2110   2.190   3.570   1.483
  141SL       H 2111   2.251   3.713   1.397
  141SL       H 2112   2.147   3.455   1.269
  141SL       H 2113   2.313   3.517   1.260
  141SL       H 2114   2.144   3.575   1.059
  141SL       H 2115   2.244   3.708   1.126
  142SL       O 2116   1.601   4.021   2.981
  142SL       S 2117   1.514   3.990   3.092
  142SL       O 2118   1.509   4.072   3.211
  142SL       C 2119   1.348   3.968   3.029
  142SL       C 2120   1.304   3.832   3.080
  142SL       C 2121   1.427   3.742   3.075
  142SL       C 2122   1.539   3.820   3.140
  142SL       H 2123   1.284   4.049   3.064
  142SL       H 2124   1.353   3.969   2.920
  142SL       H 2125   1.221   3.791   3.020
  142SL       H 2126   1.269   3.840   3.184
  142SL       H 2127   1.452   3.721   2.969
  142SL       H 2128   1.410   3.646   3.124
  142SL       H 2129   1.638   3.787   3.109
  142SL       H 2130   1.531   3.815   3.250
  143SL       O 2131   2.491   0.268   2.160
  143SL       S 2132   2.487   0.360   2.272
  143SL       O 2133   2.587   0.358   2.377
  143SL       C 2134   2.473   0.526   2.208
  143SL       C 2135   2.351   0.585   2.279
  143SL       C 2136   2.249   0.471   2.290
  143SL       C 2137   2.325   0.353   2.346
  143SL       H 2138   2.565   0.582   2.229
  143SL       H 2139   2.456   0.520   2.100
  143SL       H 2140   2.310   0.670   2.223
  143SL       H 2141   2.379   0.620   2.379
  143SL       H 2142   2.210   0.447   2.190
  143SL       H 2143   2.164   0.498   2.353
  143SL       H 2144   2.278   0.257   2.323
  143SL       H 2145   2.338   0.362   2.454
  144SL       O 2146   2.572   0.988   3.425
  144SL       S 2147   2.603   1.094   3.519
  144SL       O 2148   2.738   1.147   3.532
  144SL       C 2149   2.490   1.229   3.492
  144SL       C 2150   2.429   1.256   3.630
  144SL       C 2151   2.411   1.120   3.697
  144SL       C 2152   2.543   1.048   3.681
  144SL       H 2153   2.543   1.315   3.452
  144SL       H 2154   2.414   1.196   3.422
  144SL       H 2155   2.334   1.310   3.621
  144SL       H 2156   2.497   1.318   3.689
  144SL       H 2157   2.331   1.065   3.645
  144SL       H 2158   2.383   1.130   3.801
  144SL       H 2159   2.534   0.940   3.687
  144SL       H 2160   2.616   1.084   3.754
  145SL       O 2161   2.298   1.542   2.756
  145SL       S 2162   2.399   1.491   2.666
  145SL       O 2163   2.407   1.351   2.630
  145SL       C 2164   2.397   1.590   2.518
  145SL       C 2165   2.541   1.637   2.500
  145SL       C 2166   2.594   1.666   2.640
  145SL       C 2167   2.559   1.545   2.724
  145SL       H 2168   2.362   1.530   2.433
  145SL       H 2169   2.330   1.674   2.534
  145SL       H 2170   2.546   1.726   2.435
  145SL       H 2171   2.601   1.558   2.453
  145SL       H 2172   2.543   1.756   2.680
  145SL       H 2173   2.701   1.686   2.640
  145SL       H 2174   2.555   1.567   2.831
  145SL       H 2175   2.630   1.463   2.705
  146SL       O 2176   1.778   2.362   3.096
  146SL       S 2177   1.895   2.280   3.118
  146SL       O 2178   1.920   2.214   3.244
  146SL       C 2179   1.904   2.159   2.987
  146SL       C 2180   2.044   2.175   2.928
  146SL       C 2181   2.075   2.325   2.931
  146SL       C 2182   2.040   2.372   3.071
  146SL       H 2183   1.886   2.059   3.026
  146SL       H 2184   1.828   2.184   2.912
  146SL       H 2185   2.050   2.135   2.827
  146SL       H 2186   2.117   2.121   2.991
  146SL       H 2187   2.012   2.376   2.857
  146SL       H 2188   2.179   2.346   2.907
  146SL       H 2189   2.019   2.479   3.076
  146SL       H 2190   2.120   2.346   3.142
  147SL       O 2191   3.947   1.317   3.356
  147SL       S 2192   3.929   1.228   3.244
  147SL       O 2193   3.931   1.275   3.107
  147SL       C 2194   4.045   1.093   3.260
  147SL       C 2195   3.960   0.966   3.252
  147SL       C 2196   3.829   0.998   3.325
  147SL       C 2197   3.782   1.131   3.270
  147SL       H 2198   4.120   1.098   3.181
  147SL       H 2199   4.093   1.101   3.358
  147SL       H 2200   4.011   0.880   3.296
  147SL       H 2201   3.938   0.942   3.147
  147SL       H 2202   3.850   1.007   3.433
  147SL       H 2203   3.755   0.920   3.312
  147SL       H 2204   3.715   1.184   3.338
  147SL       H 2205   3.733   1.118   3.173
  148SL       O 2206   0.929   3.567   0.261
  148SL       S 2207   0.999   3.456   0.321
  148SL       O 2208   0.953   3.392   0.443
  148SL       C 2209   1.024   3.330   0.196
  148SL       C 2210   1.174   3.302   0.198
  148SL       C 2211   1.242   3.436   0.222
  148SL       C 2212   1.171   3.499   0.340
  148SL       H 2213   0.964   3.242   0.220
  148SL       H 2214   0.993   3.372   0.100
  148SL       H 2215   1.207   3.256   0.104
  148SL       H 2216   1.198   3.233   0.280
  148SL       H 2217   1.231   3.500   0.133
  148SL       H 2218   1.349   3.425   0.241
  148SL       H 2219   1.182   3.608   0.344
  148SL       H 2220   1.206   3.455   0.435
  149SL       O 2221   1.686   0.931   1.577
  149SL       S 2222   1.795   1.025   1.579
  149SL       O 2223   1.829   1.106   1.464
  149SL       C 2224   1.775   1.132   1.721
  149SL       C 2225   1.908   1.124   1.796
  149SL       C 2226   1.954   0.978   1.784
  149SL       C 2227   1.942   0.943   1.637
  149SL       H 2228   1.752   1.234   1.688
  149SL       H 2229   1.693   1.093   1.782
  149SL       H 2230   1.896   1.154   1.900
  149SL       H 2231   1.982   1.190   1.749
  149SL       H 2232   1.887   0.914   1.844
  149SL       H 2233   2.056   0.964   1.821
  149SL       H 2234   1.933   0.835   1.620
  149SL       H 2235   2.027   0.982   1.580
  150SL       O 2236   1.750   3.492   3.401
  150SL       S 2237   1.831   3.608   3.370
  150SL       O 2238   1.802   3.739   3.426
  150SL       C 2239   2.002   3.568   3.401
  150SL       C 2240   2.074   3.603   3.271
  150SL       C 2241   1.979   3.563   3.158
  150SL       C 2242   1.845   3.624   3.193
  150SL       H 2243   2.039   3.626   3.486
  150SL       H 2244   2.008   3.461   3.422
  150SL       H 2245   2.170   3.550   3.263
  150SL       H 2246   2.094   3.710   3.266
  150SL       H 2247   1.971   3.453   3.153
  150SL       H 2248   2.015   3.598   3.060
  150SL       H 2249   1.761   3.572   3.145
  150SL       H 2250   1.842   3.730   3.168
  151SL       O 2251   2.307   0.387   0.176
  151SL       S 2252   2.295   0.485   0.281
  151SL       O 2253   2.387   0.489   0.394
  151SL       C 2254   2.286   0.647   0.208
  151SL       C 2255   2.160   0.710   0.265
  151SL       C 2256   2.057   0.597   0.276
  151SL       C 2257   2.128   0.482   0.344
  151SL       H 2258   2.376   0.704   0.232
  151SL       H 2259   2.278   0.635   0.100
  151SL       H 2260   2.124   0.792   0.202
  151SL       H 2261   2.180   0.751   0.365
  151SL       H 2262   2.025   0.568   0.174
  151SL       H 2263   1.968   0.628   0.330
  151SL       H 2264   2.082   0.385   0.323
  151SL       H 2265   2.132   0.498   0.452
  152SL       O 2266   0.536   3.213   1.699
  152SL       S 2267   0.485   3.311   1.791
  152SL       O 2268   0.346   3.355   1.788
  152SL       C 2269   0.525   3.259   1.957
  152SL       C 2270   0.596   3.378   2.020
  152SL       C 2271   0.682   3.439   1.909
  152SL       C 2272   0.590   3.454   1.789
  152SL       H 2273   0.434   3.231   2.011
  152SL       H 2274   0.591   3.172   1.950
  152SL       H 2275   0.657   3.347   2.105
  152SL       H 2276   0.523   3.452   2.055
  152SL       H 2277   0.765   3.371   1.885
  152SL       H 2278   0.725   3.535   1.939
  152SL       H 2279   0.645   3.459   1.694
  152SL       H 2280   0.527   3.543   1.800
  153SL       O 2281   3.927   2.435   2.023
  153SL       S 2282   3.789   2.399   2.045
  153SL       O 2283   3.740   2.265   2.019
  153SL       C 2284   3.742   2.447   2.210
  153SL       C 2285   3.617   2.533   2.192
  153SL       C 2286   3.639   2.614   2.065
  153SL       C 2287   3.684   2.515   1.959
  153SL       H 2288   3.724   2.358   2.271
  153SL       H 2289   3.824   2.506   2.252
  153SL       H 2290   3.600   2.597   2.279
  153SL       H 2291   3.529   2.468   2.180
  153SL       H 2292   3.717   2.689   2.083
  153SL       H 2293   3.548   2.667   2.034
  153SL       H 2294   3.740   2.563   1.878
  153SL       H 2295   3.599   2.460   1.919
  154SL       O 2296   1.133   1.786   3.874
  154SL       S 2297   1.194   1.717   3.985
  154SL       O 2298   1.189   1.769   4.120
  154SL       C 2299   1.134   1.549   3.985
  154SL       C 2300   1.260   1.462   3.987
  154SL       C 2301   1.362   1.534   3.898
  154SL       C 2302   1.363   1.678   3.944
  154SL       H 2303   1.071   1.531   4.073
  154SL       H 2304   1.077   1.532   3.894
  154SL       H 2305   1.239   1.361   3.951
  154SL       H 2306   1.299   1.454   4.089
  154SL       H 2307   1.329   1.527   3.793
  154SL       H 2308   1.461   1.488   3.904
  154SL       H 2309   1.399   1.747   3.867
  154SL       H 2310   1.423   1.689   4.035
  155SL       O 2311   1.439   0.984   0.281
  155SL       S 2312   1.483   0.860   0.340
  155SL       O 2313   1.399   0.786   0.433
  155SL       C 2314   1.536   0.750   0.211
  155SL       C 2315   1.677   0.707   0.250
  155SL       C 2316   1.743   0.830   0.313
  155SL       C 2317   1.644   0.884   0.414
  155SL       H 2318   1.467   0.666   0.202
  155SL       H 2319   1.537   0.806   0.117
  155SL       H 2320   1.733   0.671   0.164
  155SL       H 2321   1.672   0.626   0.324
  155SL       H 2322   1.761   0.905   0.234
  155SL       H 2323   1.839   0.806   0.359
  155SL       H 2324   1.659   0.990   0.436
  155SL       H 2325   1.647   0.825   0.506
  156SL       O 2326   1.242   2.003   1.348
  156SL       S 2327   1.323   1.953   1.239
  156SL       O 2328   1.277   1.847   1.152
  156SL       C 2329   1.376   2.091   1.139
  156SL       C 2330   1.527   2.078   1.131
  156SL       C 2331   1.573   2.028   1.268
  156SL       C 2332   1.485   1.910   1.301
  156SL       H 2333   1.328   2.087   1.041
  156SL       H 2334   1.347   2.183   1.191
  156SL       H 2335   1.574   2.174   1.105
  156SL       H 2336   1.555   2.005   1.054
  156SL       H 2337   1.560   2.109   1.342
  156SL       H 2338   1.679   2.001   1.268
  156SL       H 2339   1.479   1.891   1.408
  156SL       H 2340   1.518   1.820   1.248
  157SL       O 2341   2.937   1.659   3.408
  157SL       S 2342   2.850   1.774   3.412
  157SL       O 2343   2.890   1.902   3.356
  157SL       C 2344   2.692   1.728   3.344
  157SL       C 2345   2.590   1.768   3.451
  157SL       C 2346   2.656   1.738   3.586
  157SL       C 2347   2.794   1.800   3.579
  157SL       H 2348   2.675   1.779   3.249
  157SL       H 2349   2.692   1.620   3.329
  157SL       H 2350   2.496   1.713   3.439
  157SL       H 2351   2.568   1.875   3.443
  157SL       H 2352   2.664   1.629   3.599
  157SL       H 2353   2.598   1.778   3.669
  157SL       H 2354   2.865   1.754   3.649
  157SL       H 2355   2.790   1.908   3.596
  158SL       O 2356   3.706   2.617   3.978
  158SL       S 2357   3.614   2.728   3.974
  158SL       O 2358   3.582   2.805   4.093
  158SL       C 2359   3.665   2.840   3.845
  158SL       C 2360   3.541   2.858   3.757
  158SL       C 2361   3.471   2.722   3.753
  158SL       C 2362   3.462   2.676   3.897
  158SL       H 2363   3.700   2.934   3.887
  158SL       H 2364   3.745   2.792   3.788
  158SL       H 2365   3.567   2.893   3.657
  158SL       H 2366   3.474   2.933   3.802
  158SL       H 2367   3.532   2.652   3.694
  158SL       H 2368   3.373   2.728   3.706
  158SL       H 2369   3.452   2.567   3.906
  158SL       H 2370   3.379   2.725   3.949
  159SL       O 2371   2.114   2.056   1.363
  159SL       S 2372   2.085   1.923   1.412
  159SL       O 2373   2.093   1.889   1.552
  159SL       C 2374   1.926   1.873   1.349
  159SL       C 2375   1.950   1.739   1.281
  159SL       C 2376   2.087   1.750   1.213
  159SL       C 2377   2.181   1.805   1.319
  159SL       H 2378   1.854   1.866   1.431
  159SL       H 2379   1.892   1.948   1.277
  159SL       H 2380   1.871   1.716   1.208
  159SL       H 2381   1.952   1.658   1.355
  159SL       H 2382   2.080   1.820   1.128
  159SL       H 2383   2.121   1.654   1.175
  159SL       H 2384   2.269   1.854   1.276
  159SL       H 2385   2.213   1.726   1.388
  160SL       O 2386   1.735   1.667   3.767
  160SL       S 2387   1.832   1.760   3.820
  160SL       O 2388   1.841   1.790   3.961
  160SL       C 2389   1.993   1.714   3.760
  160SL       C 2390   2.049   1.840   3.695
  160SL       C 2391   1.931   1.909   3.627
  160SL       C 2392   1.821   1.914   3.730
  160SL       H 2393   2.055   1.678   3.842
  160SL       H 2394   1.980   1.635   3.686
  160SL       H 2395   2.129   1.816   3.624
  160SL       H 2396   2.091   1.906   3.772
  160SL       H 2397   1.900   1.849   3.540
  160SL       H 2398   1.957   2.009   3.591
  160SL       H 2399   1.721   1.923   3.685
  160SL       H 2400   1.837   1.995   3.801
  161SL       O 2401   0.107   1.065   2.246
  161SL       S 2402   0.160   1.086   2.379
  161SL       O 2403   0.100   1.181   2.471
  161SL       C 2404   0.177   0.928   2.460
  161SL       C 2405   0.322   0.923   2.507
  161SL       C 2406   0.404   0.990   2.397
  161SL       C 2407   0.335   1.121   2.367
  161SL       H 2408   0.105   0.921   2.542
  161SL       H 2409   0.157   0.850   2.386
  161SL       H 2410   0.354   0.820   2.524
  161SL       H 2411   0.333   0.978   2.601
  161SL       H 2412   0.405   0.926   2.308
  161SL       H 2413   0.508   1.006   2.428
  161SL       H 2414   0.358   1.160   2.267
  161SL       H 2415   0.359   1.197   2.442
  162SL       O 2416   3.279   1.488   1.194
  162SL       S 2417   3.257   1.604   1.277
  162SL       O 2418   3.272   1.599   1.422
  162SL       C 2419   3.355   1.738   1.213
  162SL       C 2420   3.256   1.853   1.193
  162SL       C 2421   3.127   1.789   1.144
  162SL       C 2422   3.098   1.674   1.238
  162SL       H 2423   3.435   1.763   1.284
  162SL       H 2424   3.398   1.707   1.118
  162SL       H 2425   3.295   1.927   1.122
  162SL       H 2426   3.238   1.904   1.289
  162SL       H 2427   3.141   1.751   1.041
  162SL       H 2428   3.044   1.861   1.141
  162SL       H 2429   3.034   1.598   1.194
  162SL       H 2430   3.054   1.710   1.332
  163SL       O 2431   0.100   2.855   2.004
  163SL       S 2432   0.179   2.891   2.120
  163SL       O 2433   0.124   2.970   2.228
  163SL       C 2434   0.252   2.743   2.186
  163SL       C 2435   0.401   2.774   2.195
  163SL       C 2436   0.435   2.857   2.071
  163SL       C 2437   0.331   2.967   2.065
  163SL       H 2438   0.208   2.720   2.284
  163SL       H 2439   0.233   2.661   2.117
  163SL       H 2440   0.461   2.682   2.199
  163SL       H 2441   0.423   2.832   2.286
  163SL       H 2442   0.428   2.793   1.982
  163SL       H 2443   0.536   2.897   2.075
  163SL       H 2444   0.318   3.008   1.965
  163SL       H 2445   0.355   3.047   2.136
  164SL       O 2446   3.329   2.266   0.958
  164SL       S 2447   3.377   2.379   0.883
  164SL       O 2448   3.392   2.374   0.738
  164SL       C 2449   3.279   2.521   0.925
  164SL       C 2450   3.379   2.628   0.967
  164SL       C 2451   3.491   2.555   1.042
  164SL       C 2452   3.529   2.437   0.955
  164SL       H 2453   3.217   2.552   0.840
  164SL       H 2454   3.214   2.494   1.009
  164SL       H 2455   3.333   2.705   1.029
  164SL       H 2456   3.421   2.677   0.878
  164SL       H 2457   3.452   2.519   1.139
  164SL       H 2458   3.576   2.620   1.062
  164SL       H 2459   3.577   2.356   1.011
  164SL       H 2460   3.595   2.469   0.873
  165SL       O 2461   1.161   2.428   3.765
  165SL       S 2462   1.134   2.302   3.830
  165SL       O 2463   1.231   2.241   3.919
  165SL       C 2464   0.977   2.313   3.913
  165SL       C 2465   0.897   2.194   3.862
  165SL       C 2466   0.933   2.179   3.715
  165SL       C 2467   1.084   2.183   3.708
  165SL       H 2468   0.992   2.311   4.022
  165SL       H 2469   0.930   2.407   3.884
  165SL       H 2470   0.789   2.209   3.876
  165SL       H 2471   0.926   2.103   3.917
  165SL       H 2472   0.890   2.263   3.658
  165SL       H 2473   0.893   2.086   3.672
  165SL       H 2474   1.122   2.212   3.610
  165SL       H 2475   1.127   2.086   3.736
  166SL       O 2476   2.971   0.348   1.746
  166SL       S 2477   2.932   0.436   1.638
  166SL       O 2478   2.913   0.387   1.502
  166SL       C 2479   2.786   0.525   1.688
  166SL       C 2480   2.821   0.672   1.666
  166SL       C 2481   2.968   0.687   1.705
  166SL       C 2482   3.041   0.576   1.633
  166SL       H 2483   2.700   0.493   1.628
  166SL       H 2484   2.768   0.505   1.793
  166SL       H 2485   2.756   0.738   1.726
  166SL       H 2486   2.808   0.699   1.560
  166SL       H 2487   2.978   0.676   1.814
  166SL       H 2488   3.007   0.786   1.678
  166SL       H 2489   3.136   0.550   1.681
  166SL       H 2490   3.059   0.602   1.528
  167SL       O 2491   1.329   1.919   3.277
  167SL       S 2492   1.417   1.919   3.392
  167SL       O 2493   1.540   1.996   3.394
  167SL       C 2494   1.322   1.958   3.537
  167SL       C 2495   1.351   1.845   3.635
  167SL       C 2496   1.361   1.718   3.552
  167SL       C 2497   1.454   1.750   3.437
  167SL       H 2498   1.351   2.056   3.576
  167SL       H 2499   1.216   1.959   3.509
  167SL       H 2500   1.273   1.837   3.711
  167SL       H 2501   1.446   1.863   3.686
  167SL       H 2502   1.261   1.691   3.513
  167SL       H 2503   1.397   1.633   3.610
  167SL       H 2504   1.440   1.685   3.350
  167SL       H 2505   1.559   1.746   3.469
  168SL       O 2506   3.104   2.985   3.420
  168SL       S 2507   3.209   3.070   3.368
  168SL       O 2508   3.182   3.174   3.271
  168SL       C 2509   3.297   3.141   3.506
  168SL       C 2510   3.444   3.107   3.480
  168SL       C 2511   3.445   2.966   3.420
  168SL       C 2512   3.343   2.968   3.309
  168SL       H 2513   3.279   3.248   3.511
  168SL       H 2514   3.262   3.093   3.597
  168SL       H 2515   3.503   3.111   3.573
  168SL       H 2516   3.487   3.178   3.409
  168SL       H 2517   3.416   2.893   3.497
  168SL       H 2518   3.544   2.939   3.383
  168SL       H 2519   3.305   2.869   3.284
  168SL       H 2520   3.383   3.016   3.219
  169SL       O 2521   3.666   1.549   2.028
  169SL       S 2522   3.568   1.515   2.128
  169SL       O 2523   3.602   1.503   2.268
  169SL       C 2524   3.430   1.627   2.111
  169SL       C 2525   3.307   1.538   2.098
  169SL       C 2526   3.351   1.417   2.015
  169SL       C 2527   3.480   1.369   2.077
  169SL       H 2528   3.424   1.694   2.198
  169SL       H 2529   3.445   1.686   2.021
  169SL       H 2530   3.224   1.591   2.052
  169SL       H 2531   3.275   1.504   2.197
  169SL       H 2532   3.369   1.450   1.911
  169SL       H 2533   3.275   1.339   2.012
  169SL       H 2534   3.542   1.311   2.007
  169SL       H 2535   3.461   1.309   2.166
  170SL       O 2536   1.811   2.358   3.575
  170SL       S 2537   1.910   2.433   3.503
  170SL       O 2538   2.037   2.375   3.462
  170SL       C 2539   1.832   2.508   3.361
  170SL       C 2540   1.866   2.656   3.371
  170SL       C 2541   1.860   2.691   3.520
  170SL       C 2542   1.943   2.585   3.590
  170SL       H 2543   1.870   2.462   3.269
  170SL       H 2544   1.725   2.491   3.369
  170SL       H 2545   1.795   2.717   3.313
  170SL       H 2546   1.966   2.675   3.332
  170SL       H 2547   1.756   2.687   3.554
  170SL       H 2548   1.898   2.792   3.540
  170SL       H 2549   1.916   2.574   3.695
  170SL       H 2550   2.050   2.607   3.581
  171SL       O 2551   1.698   1.237   1.948
  171SL       S 2552   1.641   1.177   2.067
  171SL       O 2553   1.640   1.246   2.195
  171SL       C 2554   1.475   1.124   2.029
  171SL       C 2555   1.471   0.977   2.069
  171SL       C 2556   1.608   0.918   2.033
  171SL       C 2557   1.710   1.014   2.090
  171SL       H 2558   1.403   1.184   2.083
  171SL       H 2559   1.460   1.135   1.921
  171SL       H 2560   1.390   0.923   2.019
  171SL       H 2561   1.455   0.968   2.178
  171SL       H 2562   1.617   0.913   1.923
  171SL       H 2563   1.621   0.817   2.072
  171SL       H 2564   1.807   1.008   2.039
  171SL       H 2565   1.724   0.998   2.197
  172SL       O 2566   0.777   3.737   2.791
  172SL       S 2567   0.636   3.749   2.821
  172SL       O 2568   0.566   3.876   2.815
  172SL       C 2569   0.547   3.629   2.724
  172SL       C 2570   0.464   3.549   2.824
  172SL       C 2571   0.551   3.535   2.949
  172SL       C 2572   0.604   3.673   2.980
  172SL       H 2573   0.485   3.679   2.649
  172SL       H 2574   0.620   3.564   2.674
  172SL       H 2575   0.435   3.452   2.784
  172SL       H 2576   0.373   3.605   2.849
  172SL       H 2577   0.635   3.466   2.927
  172SL       H 2578   0.496   3.493   3.033
  172SL       H 2579   0.696   3.672   3.039
  172SL       H 2580   0.528   3.734   3.031
  173SL       O 2581   2.344   2.810   0.475
  173SL       S 2582   2.481   2.837   0.511
  173SL       O 2583   2.584   2.862   0.412
  173SL       C 2584   2.483   2.969   0.631
  173SL       C 2585   2.563   2.914   0.749
  173SL       C 2586   2.525   2.766   0.761
  173SL       C 2587   2.538   2.709   0.622
  173SL       H 2588   2.529   3.058   0.588
  173SL       H 2589   2.380   2.990   0.661
  173SL       H 2590   2.541   2.969   0.841
  173SL       H 2591   2.671   2.923   0.729
  173SL       H 2592   2.421   2.758   0.796
  173SL       H 2593   2.589   2.713   0.833
  173SL       H 2594   2.478   2.618   0.607
  173SL       H 2595   2.643   2.688   0.597
  174SL       O 2596   2.131   3.880   0.945
  174SL       S 2597   2.014   3.896   0.862
  174SL       O 2598   2.022   3.943   0.725
  174SL       C 2599   1.919   3.745   0.867
  174SL       C 2600   1.778   3.788   0.908
  174SL       C 2601   1.796   3.900   1.010
  174SL       C 2602   1.895   3.997   0.949
  174SL       H 2603   1.921   3.697   0.769
  174SL       H 2604   1.963   3.680   0.942
  174SL       H 2605   1.722   3.704   0.949
  174SL       H 2606   1.724   3.826   0.821
  174SL       H 2607   1.837   3.858   1.103
  174SL       H 2608   1.702   3.948   1.035
  174SL       H 2609   1.946   4.058   1.024
  174SL       H 2610   1.846   4.062   0.876
  175SL       O 2611   0.752   1.472   1.946
  175SL       S 2612   0.629   1.485   1.870
  175SL       O 2613   0.606   1.410   1.749
  175SL       C 2614   0.492   1.461   1.981
  175SL       C 2615   0.404   1.584   1.962
  175SL       C 2616   0.499   1.702   1.943
  175SL       C 2617   0.599   1.658   1.838
  175SL       H 2618   0.440   1.368   1.957
  175SL       H 2619   0.531   1.456   2.083
  175SL       H 2620   0.338   1.600   2.048
  175SL       H 2621   0.341   1.572   1.873
  175SL       H 2622   0.551   1.723   2.038
  175SL       H 2623   0.447   1.793   1.913
  175SL       H 2624   0.693   1.713   1.842
  175SL       H 2625   0.556   1.666   1.737
  176SL       O 2626   0.449   4.054   1.520
  176SL       S 2627   0.490   3.977   1.404
  176SL       O 2628   0.506   4.037   1.274
  176SL       C 2629   0.638   3.887   1.446
  176SL       C 2630   0.607   3.741   1.412
  176SL       C 2631   0.461   3.719   1.450
  176SL       C 2632   0.384   3.834   1.389
  176SL       H 2633   0.723   3.926   1.388
  176SL       H 2634   0.657   3.899   1.553
  176SL       H 2635   0.674   3.673   1.466
  176SL       H 2636   0.620   3.724   1.304
  176SL       H 2637   0.451   3.722   1.560
  176SL       H 2638   0.424   3.623   1.416
  176SL       H 2639   0.289   3.854   1.439
  176SL       H 2640   0.366   3.817   1.282
  177SL       O 2641   2.314   1.096   3.052
  177SL       S 2642   2.223   1.002   2.990
  177SL       O 2643   2.268   0.908   2.889
  177SL       C 2644   2.139   0.913   3.119
  177SL       C 2645   1.990   0.929   3.088
  177SL       C 2646   1.974   1.071   3.034
  177SL       C 2647   2.081   1.089   2.929
  177SL       H 2648   2.170   0.808   3.120
  177SL       H 2649   2.163   0.959   3.215
  177SL       H 2650   1.928   0.912   3.176
  177SL       H 2651   1.960   0.857   3.010
  177SL       H 2652   1.989   1.143   3.117
  177SL       H 2653   1.874   1.088   2.994
  177SL       H 2654   2.106   1.194   2.912
  177SL       H 2655   2.051   1.042   2.834
  178SL       O 2656   0.542   2.228   0.947
  178SL       S 2657   0.559   2.317   1.060
  178SL       O 2658   0.474   2.308   1.178
  178SL       C 2659   0.729   2.314   1.111
  178SL       C 2660   0.773   2.460   1.111
  178SL       C 2661   0.703   2.526   0.992
  178SL       C 2662   0.558   2.486   1.002
  178SL       H 2663   0.739   2.267   1.209
  178SL       H 2664   0.786   2.257   1.036
  178SL       H 2665   0.882   2.470   1.105
  178SL       H 2666   0.741   2.509   1.204
  178SL       H 2667   0.748   2.488   0.899
  178SL       H 2668   0.715   2.635   0.993
  178SL       H 2669   0.506   2.491   0.906
  178SL       H 2670   0.505   2.547   1.076
  179SL       O 2671   1.498   2.386   2.650
  179SL       S 2672   1.619   2.358   2.724
  179SL       O 2673   1.619   2.347   2.869
  179SL       C 2674   1.696   2.213   2.655
  179SL       C 2675   1.839   2.255   2.624
  179SL       C 2676   1.831   2.399   2.575
  179SL       C 2677   1.746   2.473   2.675
  179SL       H 2678   1.691   2.130   2.727
  179SL       H 2679   1.642   2.186   2.564
  179SL       H 2680   1.885   2.189   2.550
  179SL       H 2681   1.900   2.251   2.715
  179SL       H 2682   1.783   2.401   2.475
  179SL       H 2683   1.930   2.445   2.564
  179SL       H 2684   1.699   2.563   2.634
  179SL       H 2685   1.804   2.499   2.764
  180SL       O 2686   2.788   1.037   2.437
  180SL       S 2687   2.773   1.144   2.532
  180SL       O 2688   2.688   1.132   2.649
  180SL       C 2689   2.936   1.195   2.585
  180SL       C 2690   2.940   1.346   2.560
  180SL       C 2691   2.863   1.370   2.431
  180SL       C 2692   2.732   1.294   2.445
  180SL       H 2693   2.952   1.169   2.690
  180SL       H 2694   3.010   1.144   2.522
  180SL       H 2695   3.043   1.382   2.553
  180SL       H 2696   2.891   1.399   2.643
  180SL       H 2697   2.920   1.330   2.346
  180SL       H 2698   2.846   1.476   2.412
  180SL       H 2699   2.686   1.270   2.349
  180SL       H 2700   2.661   1.350   2.507
  181SL       O 2701   1.872   2.899   0.109
  181SL       S 2702   1.865   3.021   0.187
  181SL       O 2703   1.763   3.121   0.163
  181SL       C 2704   1.864   2.977   0.360
  181SL       C 2705   1.977   3.057   0.422
  181SL       C 2706   2.090   3.059   0.318
  181SL       C 2707   2.025   3.099   0.188
  181SL       H 2708   1.766   3.000   0.404
  181SL       H 2709   1.883   2.869   0.368
  181SL       H 2710   2.011   3.013   0.517
  181SL       H 2711   1.944   3.160   0.442
  181SL       H 2712   2.133   2.958   0.310
  181SL       H 2713   2.170   3.128   0.346
  181SL       H 2714   2.082   3.067   0.100
  181SL       H 2715   2.009   3.208   0.183
  182SL       O 2716   0.260   1.903   0.915
  182SL       S 2717   0.321   1.939   1.041
  182SL       O 2718   0.291   2.064   1.107
  182SL       C 2719   0.295   1.805   1.156
  182SL       C 2720   0.434   1.771   1.209
  182SL       C 2721   0.529   1.786   1.090
  182SL       C 2722   0.497   1.920   1.028
  182SL       H 2723   0.227   1.837   1.236
  182SL       H 2724   0.252   1.721   1.101
  182SL       H 2725   0.437   1.669   1.250
  182SL       H 2726   0.463   1.841   1.288
  182SL       H 2727   0.509   1.705   1.017
  182SL       H 2728   0.634   1.779   1.120
  182SL       H 2729   0.527   1.927   0.923
  182SL       H 2730   0.544   2.002   1.085
  183SL       O 2731   0.434   3.394   0.495
  183SL       S 2732   0.315   3.332   0.547
  183SL       O 2733   0.241   3.232   0.472
  183SL       C 2734   0.351   3.267   0.709
  183SL       C 2735   0.244   3.326   0.801
  183SL       C 2736   0.220   3.469   0.751
  183SL       C 2737   0.201   3.458   0.601
  183SL       H 2738   0.349   3.157   0.707
  183SL       H 2739   0.451   3.301   0.738
  183SL       H 2740   0.276   3.324   0.905
  183SL       H 2741   0.151   3.268   0.792
  183SL       H 2742   0.309   3.530   0.774
  183SL       H 2743   0.134   3.515   0.800
  183SL       H 2744   0.223   3.552   0.549
  183SL       H 2745   0.100   3.425   0.577
  184SL       O 2746   2.824   2.912   1.097
  184SL       S 2747   2.878   2.853   1.217
  184SL       O 2748   2.816   2.872   1.347
  184SL       C 2749   2.901   2.678   1.189
  184SL       C 2750   3.047   2.651   1.224
  184SL       C 2751   3.126   2.773   1.177
  184SL       C 2752   3.051   2.894   1.229
  184SL       H 2753   2.832   2.620   1.250
  184SL       H 2754   2.883   2.658   1.083
  184SL       H 2755   3.083   2.559   1.177
  184SL       H 2756   3.058   2.640   1.333
  184SL       H 2757   3.128   2.775   1.066
  184SL       H 2758   3.229   2.771   1.211
  184SL       H 2759   3.072   2.985   1.172
  184SL       H 2760   3.074   2.911   1.335
  185SL       O 2761   1.460   2.592   2.729
  185SL       S 2762   1.318   2.609   2.749
  185SL       O 2763   1.236   2.683   2.655
  185SL       C 2764   1.244   2.449   2.775
  185SL       C 2765   1.167   2.462   2.906
  185SL       C 2766   1.251   2.551   2.997
  185SL       C 2767   1.289   2.672   2.913
  185SL       H 2768   1.180   2.422   2.691
  185SL       H 2769   1.325   2.375   2.785
  185SL       H 2770   1.148   2.364   2.952
  185SL       H 2771   1.070   2.509   2.888
  185SL       H 2772   1.342   2.497   3.027
  185SL       H 2773   1.198   2.580   3.087
  185SL       H 2774   1.379   2.723   2.949
  185SL       H 2775   1.206   2.743   2.907
  186SL       O 2776   1.187   0.374   3.877
  186SL       S 2777   1.276   0.421   3.981
  186SL       O 2778   1.235   0.428   4.120
  186SL       C 2779   1.429   0.331   3.970
  186SL       C 2780   1.538   0.438   3.962
  186SL       C 2781   1.480   0.551   3.876
  186SL       C 2782   1.343   0.580   3.934
  186SL       H 2783   1.441   0.266   4.057
  186SL       H 2784   1.427   0.271   3.878
  186SL       H 2785   1.630   0.398   3.918
  186SL       H 2786   1.561   0.475   4.062
  186SL       H 2787   1.471   0.517   3.772
  186SL       H 2788   1.543   0.639   3.877
  186SL       H 2789   1.276   0.628   3.861
  186SL       H 2790   1.350   0.641   4.024
  187SL       O 2791   1.849   1.883   1.065
  187SL       S 2792   1.930   1.951   0.966
  187SL       O 2793   2.007   1.878   0.867
  187SL       C 2794   1.829   2.072   0.883
  187SL       C 2795   1.906   2.204   0.897
  187SL       C 2796   1.969   2.202   1.036
  187SL       C 2797   2.037   2.067   1.049
  187SL       H 2798   1.813   2.043   0.779
  187SL       H 2799   1.733   2.078   0.935
  187SL       H 2800   1.840   2.290   0.883
  187SL       H 2801   1.985   2.209   0.820
  187SL       H 2802   1.890   2.212   1.112
  187SL       H 2803   2.039   2.284   1.050
  187SL       H 2804   2.051   2.036   1.153
  187SL       H 2805   2.133   2.067   0.997
  188SL       O 2806   2.536   1.786   0.840
  188SL       S 2807   2.400   1.793   0.886
  188SL       O 2808   2.335   1.919   0.914
  188SL       C 2809   2.298   1.699   0.774
  188SL       C 2810   2.221   1.601   0.862
  188SL       C 2811   2.319   1.558   0.972
  188SL       C 2812   2.379   1.685   1.027
  188SL       H 2813   2.231   1.766   0.718
  188SL       H 2814   2.363   1.645   0.705
  188SL       H 2815   2.185   1.515   0.805
  188SL       H 2816   2.135   1.651   0.908
  188SL       H 2817   2.397   1.494   0.928
  188SL       H 2818   2.269   1.500   1.050
  188SL       H 2819   2.476   1.669   1.075
  188SL       H 2820   2.311   1.734   1.096
  189SL       O 2821   1.026   0.707   0.985
  189SL       S 2822   1.146   0.784   1.010
  189SL       O 2823   1.278   0.724   1.007
  189SL       C 2824   1.145   0.927   0.903
  189SL       C 2825   1.164   1.046   0.996
  189SL       C 2826   1.086   1.014   1.123
  189SL       C 2827   1.127   0.873   1.163
  189SL       H 2828   1.224   0.918   0.828
  189SL       H 2829   1.048   0.932   0.853
  189SL       H 2830   1.129   1.139   0.950
  189SL       H 2831   1.271   1.058   1.020
  189SL       H 2832   0.978   1.017   1.101
  189SL       H 2833   1.106   1.086   1.203
  189SL       H 2834   1.052   0.823   1.226
  189SL       H 2835   1.224   0.874   1.214
  190SL       O 2836   3.475   2.140   1.398
  190SL       S 2837   3.381   2.227   1.464
  190SL       O 2838   3.360   2.222   1.607
  190SL       C 2839   3.416   2.395   1.416
  190SL       C 2840   3.283   2.450   1.364
  190SL       C 2841   3.216   2.334   1.289
  190SL       C 2842   3.223   2.215   1.382
  190SL       H 2843   3.454   2.451   1.502
  190SL       H 2844   3.491   2.393   1.337
  190SL       H 2845   3.298   2.536   1.299
  190SL       H 2846   3.220   2.481   1.448
  190SL       H 2847   3.272   2.314   1.197
  190SL       H 2848   3.113   2.358   1.261
  190SL       H 2849   3.216   2.119   1.329
  190SL       H 2850   3.145   2.220   1.459
  191SL       O 2851   2.255   3.858   0.254
  191SL       S 2852   2.178   3.740   0.224
  191SL       O 2853   2.080   3.737   0.117
  191SL       C 2854   2.290   3.602   0.204
  191SL       C 2855   2.238   3.495   0.299
  191SL       C 2856   2.188   3.569   0.424
  191SL       C 2857   2.100   3.681   0.373
  191SL       H 2858   2.290   3.569   0.100
  191SL       H 2859   2.389   3.635   0.234
  191SL       H 2860   2.316   3.422   0.324
  191SL       H 2861   2.154   3.441   0.253
  191SL       H 2862   2.275   3.610   0.478
  191SL       H 2863   2.135   3.503   0.492
  191SL       H 2864   2.090   3.763   0.445
  191SL       H 2865   2.001   3.643   0.347
  192SL       O 2866   0.957   2.189   2.759
  192SL       S 2867   1.050   2.107   2.833
  192SL       O 2868   1.068   2.122   2.976
  192SL       C 2869   1.016   1.936   2.796
  192SL       C 2870   1.150   1.878   2.751
  192SL       C 2871   1.219   1.988   2.670
  192SL       C 2872   1.210   2.114   2.755
  192SL       H 2873   0.976   1.886   2.885
  192SL       H 2874   0.943   1.933   2.715
  192SL       H 2875   1.136   1.787   2.692
  192SL       H 2876   1.211   1.853   2.839
  192SL       H 2877   1.165   2.002   2.575
  192SL       H 2878   1.322   1.963   2.647
  192SL       H 2879   1.218   2.205   2.696
  192SL       H 2880   1.286   2.113   2.834
  193SL       O 2881   1.115   2.106   0.932
  193SL       S 2882   1.008   2.123   0.836
  193SL       O 2883   0.877   2.063   0.856
  193SL       C 2884   0.988   2.297   0.804
  193SL       C 2885   0.997   2.310   0.652
  193SL       C 2886   1.103   2.209   0.607
  193SL       C 2887   1.067   2.078   0.674
  193SL       H 2888   0.893   2.332   0.843
  193SL       H 2889   1.071   2.350   0.852
  193SL       H 2890   1.023   2.412   0.622
  193SL       H 2891   0.901   2.285   0.606
  193SL       H 2892   1.202   2.243   0.640
  193SL       H 2893   1.106   2.199   0.498
  193SL       H 2894   1.153   2.011   0.684
  193SL       H 2895   0.986   2.028   0.621
  194SL       O 2896   3.133   3.544   1.080
  194SL       S 2897   3.213   3.586   1.192
  194SL       O 2898   3.154   3.621   1.320
  194SL       C 2899   3.342   3.466   1.219
  194SL       C 2900   3.472   3.546   1.219
  194SL       C 2901   3.454   3.655   1.113
  194SL       C 2902   3.320   3.719   1.141
  194SL       H 2903   3.325   3.413   1.313
  194SL       H 2904   3.340   3.395   1.135
  194SL       H 2905   3.558   3.482   1.198
  194SL       H 2906   3.487   3.592   1.317
  194SL       H 2907   3.455   3.609   1.013
  194SL       H 2908   3.536   3.728   1.116
  194SL       H 2909   3.278   3.769   1.053
  194SL       H 2910   3.327   3.790   1.224
  195SL       O 2911   3.661   1.479   1.534
  195SL       S 2912   3.762   1.505   1.435
  195SL       O 2913   3.753   1.452   1.300
  195SL       C 2914   3.789   1.681   1.426
  195SL       C 2915   3.939   1.700   1.446
  195SL       C 2916   3.982   1.595   1.549
  195SL       C 2917   3.922   1.464   1.502
  195SL       H 2918   3.754   1.720   1.330
  195SL       H 2919   3.733   1.728   1.508
  195SL       H 2920   3.963   1.801   1.479
  195SL       H 2921   3.992   1.682   1.351
  195SL       H 2922   3.941   1.622   1.647
  195SL       H 2923   4.090   1.589   1.558
  195SL       H 2924   3.910   1.391   1.583
  195SL       H 2925   3.982   1.420   1.422
  196SL       O 2926   0.716   3.977   1.175
  196SL       S 2927   0.698   3.911   1.048
  196SL       O 2928   0.637   3.780   1.037
  196SL       C 2929   0.613   4.023   0.938
  196SL       C 2930   0.700   4.030   0.813
  196SL       C 2931   0.845   4.026   0.862
  196SL       C 2932   0.853   3.910   0.959
  196SL       H 2933   0.512   3.986   0.916
  196SL       H 2934   0.607   4.121   0.986
  196SL       H 2935   0.680   4.120   0.755
  196SL       H 2936   0.681   3.943   0.748
  196SL       H 2937   0.868   4.121   0.914
  196SL       H 2938   0.916   4.014   0.780
  196SL       H 2939   0.935   3.920   1.030
  196SL       H 2940   0.860   3.815   0.906
  197SL       O 2941   0.505   0.858   3.196
  197SL       S 2942   0.387   0.806   3.131
  197SL       O 2943   0.358   0.664   3.126
  197SL       C 2944   0.245   0.892   3.195
  197SL       C 2945   0.172   0.945   3.071
  197SL       C 2946   0.281   0.988   2.973
  197SL       C 2947   0.378   0.872   2.965
  197SL       H 2948   0.183   0.824   3.254
  197SL       H 2949   0.280   0.974   3.257
  197SL       H 2950   0.106   1.029   3.097
  197SL       H 2951   0.111   0.866   3.027
  197SL       H 2952   0.332   1.078   3.012
  197SL       H 2953   0.240   1.013   2.875
  197SL       H 2954   0.477   0.902   2.932
  197SL       H 2955   0.339   0.793   2.900
  198SL       O 2956   0.807   2.049   3.401
  198SL       S 2957   0.706   2.020   3.500
  198SL       O 2958   0.727   1.918   3.602
  198SL       C 2959   0.658   2.172   3.578
  198SL       C 2960   0.506   2.177   3.565
  198SL       C 2961   0.474   2.119   3.428
  198SL       C 2962   0.551   1.989   3.418
  198SL       H 2963   0.691   2.173   3.683
  198SL       H 2964   0.705   2.255   3.524
  198SL       H 2965   0.468   2.279   3.575
  198SL       H 2966   0.459   2.116   3.643
  198SL       H 2967   0.507   2.189   3.350
  198SL       H 2968   0.367   2.103   3.414
  198SL       H 2969   0.569   1.957   3.315
  198SL       H 2970   0.500   1.909   3.473
  199SL       O 2971   1.613   3.939   0.236
  199SL       S 2972   1.637   3.994   0.367
  199SL       O 2973   1.562   4.107   0.418
  199SL       C 2974   1.631   3.862   0.486
  199SL       C 2975   1.762   3.871   0.563
  199SL       C 2976   1.869   3.910   0.461
  199SL       C 2977   1.812   4.028   0.385
  199SL       H 2978   1.543   3.874   0.551
  199SL       H 2979   1.624   3.767   0.432
  199SL       H 2980   1.787   3.776   0.612
  199SL       H 2981   1.755   3.948   0.641
  199SL       H 2982   1.886   3.826   0.392
  199SL       H 2983   1.964   3.935   0.508
  199SL       H 2984   1.857   4.041   0.286
  199SL       H 2985   1.822   4.121   0.442
  200SL       O 2986   0.492   3.516   2.502
  200SL       S 2987   0.359   3.488   2.550
  200SL       O 2988   0.293   3.573   2.647
  200SL       C 2989   0.251   3.467   2.409
  200SL       C 2990   0.184   3.332   2.430
  200SL       C 2991   0.290   3.241   2.492
  200SL       C 2992   0.351   3.319   2.606
  200SL       H 2993   0.180   3.550   2.404
  200SL       H 2994   0.313   3.466   2.319
  200SL       H 2995   0.145   3.291   2.336
  200SL       H 2996   0.100   3.343   2.500
  200SL       H 2997   0.367   3.218   2.416
  200SL       H 2998   0.248   3.146   2.526
  200SL       H 2999   0.451   3.284   2.632
  200SL       H 3000   0.287   3.316   2.694
  201SL       O 3001   2.471   3.209   2.273
  201SL       S 3002   2.360   3.253   2.191
  201SL       O 3003   2.295   3.165   2.096
  201SL       C 3004   2.236   3.324   2.298
  201SL       C 3005   2.209   3.463   2.239
  201SL       C 3006   2.344   3.516   2.191
  201SL       C 3007   2.405   3.404   2.108
  201SL       H 3008   2.147   3.261   2.299
  201SL       H 3009   2.278   3.332   2.398
  201SL       H 3010   2.164   3.529   2.314
  201SL       H 3011   2.139   3.455   2.155
  201SL       H 3012   2.408   3.538   2.278
  201SL       H 3013   2.333   3.608   2.133
  201SL       H 3014   2.514   3.411   2.101
  201SL       H 3015   2.361   3.401   2.008
  202SL       O 3016   2.591   1.998   3.625
  202SL       S 3017   2.505   2.085   3.548
  202SL       O 3018   2.502   2.081   3.403
  202SL       C 3019   2.338   2.068   3.609
  202SL       C 3020   2.293   2.210   3.640
  202SL       C 3021   2.416   2.282   3.697
  202SL       C 3022   2.529   2.253   3.601
  202SL       H 3023   2.275   2.020   3.534
  202SL       H 3024   2.341   2.007   3.700
  202SL       H 3025   2.210   2.211   3.711
  202SL       H 3026   2.260   2.261   3.549
  202SL       H 3027   2.439   2.241   3.797
  202SL       H 3028   2.399   2.389   3.708
  202SL       H 3029   2.628   2.263   3.647
  202SL       H 3030   2.523   2.317   3.513
  203SL       O 3031   1.386   3.568   1.419
  203SL       S 3032   1.377   3.464   1.518
  203SL       O 3033   1.352   3.493   1.658
  203SL       C 3034   1.259   3.342   1.462
  203SL       C 3035   1.334   3.209   1.468
  203SL       C 3036   1.478   3.239   1.425
  203SL       C 3037   1.521   3.359   1.506
  203SL       H 3038   1.171   3.343   1.526
  203SL       H 3039   1.232   3.366   1.359
  203SL       H 3040   1.288   3.134   1.403
  203SL       H 3041   1.334   3.170   1.570
  203SL       H 3042   1.479   3.263   1.317
  203SL       H 3043   1.544   3.154   1.441
  203SL       H 3044   1.603   3.415   1.460
  203SL       H 3045   1.549   3.330   1.608
  204SL       O 3046   2.411   0.751   1.849
  204SL       S 3047   2.408   0.876   1.777
  204SL       O 3048   2.426   1.003   1.843
  204SL       C 3049   2.522   0.865   1.641
  204SL       C 3050   2.440   0.902   1.517
  204SL       C 3051   2.302   0.842   1.539
  204SL       C 3052   2.260   0.882   1.678
  204SL       H 3053   2.607   0.932   1.657
  204SL       H 3054   2.558   0.762   1.634
  204SL       H 3055   2.487   0.864   1.426
  204SL       H 3056   2.432   1.011   1.509
  204SL       H 3057   2.308   0.732   1.532
  204SL       H 3058   2.230   0.875   1.464
  204SL       H 3059   2.184   0.816   1.721
  204SL       H 3060   2.223   0.986   1.680
  205SL       O 3061   0.417   3.712   0.432
  205SL       S 3062   0.456   3.817   0.523
  205SL       O 3063   0.590   3.827   0.576
  205SL       C 3064   0.409   3.973   0.453
  205SL       C 3065   0.325   4.042   0.560
  205SL       C 3066   0.243   3.932   0.627
  205SL       C 3067   0.341   3.821   0.660
  205SL       H 3068   0.498   4.031   0.426
  205SL       H 3069   0.349   3.954   0.363
  205SL       H 3070   0.261   4.120   0.517
  205SL       H 3071   0.391   4.089   0.634
  205SL       H 3072   0.167   3.896   0.556
  205SL       H 3073   0.191   3.968   0.716
  205SL       H 3074   0.292   3.723   0.670
  205SL       H 3075   0.397   3.844   0.750
  206SL       O 3076   2.770   2.606   2.411
  206SL       S 3077   2.709   2.554   2.291
  206SL       O 3078   2.595   2.464   2.295
  206SL       C 3079   2.673   2.690   2.182
  206SL       C 3080   2.739   2.654   2.049
  206SL       C 3081   2.871   2.585   2.085
  206SL       C 3082   2.836   2.480   2.189
  206SL       H 3083   2.564   2.703   2.173
  206SL       H 3084   2.717   2.780   2.225
  206SL       H 3085   2.756   2.743   1.988
  206SL       H 3086   2.675   2.585   1.993
  206SL       H 3087   2.940   2.659   2.128
  206SL       H 3088   2.919   2.541   1.998
  206SL       H 3089   2.921   2.452   2.251
  206SL       H 3090   2.793   2.391   2.142
  207SL       O 3091   0.379   2.083   2.804
  207SL       S 3092   0.347   1.990   2.910
  207SL       O 3093   0.288   2.034   3.035
  207SL       C 3094   0.247   1.859   2.842
  207SL       C 3095   0.318   1.730   2.881
  207SL       C 3096   0.468   1.760   2.872
  207SL       C 3097   0.489   1.890   2.946
  207SL       H 3098   0.145   1.865   2.881
  207SL       H 3099   0.245   1.871   2.733
  207SL       H 3100   0.289   1.647   2.817
  207SL       H 3101   0.293   1.703   2.985
  207SL       H 3102   0.496   1.771   2.766
  207SL       H 3103   0.528   1.679   2.913
  207SL       H 3104   0.580   1.942   2.914
  207SL       H 3105   0.492   1.873   3.054
  208SL       O 3106   1.549   1.385   1.181
  208SL       S 3107   1.461   1.383   1.066
  208SL       O 3108   1.484   1.295   0.954
  208SL       C 3109   1.294   1.363   1.123
  208SL       C 3110   1.216   1.479   1.060
  208SL       C 3111   1.310   1.599   1.062
  208SL       C 3112   1.442   1.550   1.005
  208SL       H 3113   1.255   1.265   1.093
  208SL       H 3114   1.293   1.371   1.232
  208SL       H 3115   1.123   1.499   1.115
  208SL       H 3116   1.190   1.454   0.957
  208SL       H 3117   1.324   1.633   1.166
  208SL       H 3118   1.270   1.683   1.005
  208SL       H 3119   1.527   1.611   1.036
  208SL       H 3120   1.438   1.545   0.896
  209SL       O 3121   1.096   1.900   2.393
  209SL       S 3122   1.094   2.010   2.300
  209SL       O 3123   1.037   1.997   2.167
  209SL       C 3124   1.021   2.151   2.381
  209SL       C 3125   1.123   2.264   2.363
  209SL       C 3126   1.260   2.199   2.377
  209SL       C 3127   1.258   2.077   2.286
  209SL       H 3128   0.924   2.175   2.335
  209SL       H 3129   1.007   2.127   2.486
  209SL       H 3130   1.108   2.343   2.437
  209SL       H 3131   1.113   2.309   2.264
  209SL       H 3132   1.276   2.168   2.481
  209SL       H 3133   1.341   2.267   2.350
  209SL       H 3134   1.332   2.001   2.315
  209SL       H 3135   1.274   2.106   2.182
  210SL       O 3136   1.422   0.411   2.714
  210SL       S 3137   1.358   0.501   2.807
  210SL       O 3138   1.327   0.461   2.943
  210SL       C 3139   1.452   0.653   2.812
  210SL       C 3140   1.349   0.763   2.785
  210SL       C 3141   1.252   0.706   2.681
  210SL       C 3142   1.212   0.570   2.732
  210SL       H 3143   1.500   0.664   2.909
  210SL       H 3144   1.527   0.649   2.732
  210SL       H 3145   1.398   0.854   2.749
  210SL       H 3146   1.295   0.787   2.877
  210SL       H 3147   1.304   0.696   2.584
  210SL       H 3148   1.166   0.771   2.666
  210SL       H 3149   1.176   0.503   2.653
  210SL       H 3150   1.135   0.578   2.810
  211SL       O 3151   0.501   1.902   2.280
  211SL       S 3152   0.496   1.990   2.395
  211SL       O 3153   0.389   2.086   2.414
  211SL       C 3154   0.512   1.891   2.542
  211SL       C 3155   0.627   1.954   2.620
  211SL       C 3156   0.730   1.998   2.516
  211SL       C 3157   0.652   2.075   2.411
  211SL       H 3158   0.418   1.892   2.599
  211SL       H 3159   0.536   1.789   2.512
  211SL       H 3160   0.670   1.883   2.692
  211SL       H 3161   0.592   2.041   2.676
  211SL       H 3162   0.776   1.909   2.471
  211SL       H 3163   0.809   2.058   2.560
  211SL       H 3164   0.703   2.077   2.314
  211SL       H 3165   0.631   2.177   2.445
  212SL       O 3166   3.019   2.766   1.518
  212SL       S 3167   2.969   2.695   1.633
  212SL       O 3168   3.037   2.699   1.761
  212SL       C 3169   2.798   2.738   1.657
  212SL       C 3170   2.724   2.604   1.662
  212SL       C 3171   2.793   2.513   1.561
  212SL       C 3172   2.941   2.524   1.589
  212SL       H 3173   2.786   2.796   1.749
  212SL       H 3174   2.765   2.797   1.571
  212SL       H 3175   2.617   2.617   1.640
  212SL       H 3176   2.732   2.561   1.763
  212SL       H 3177   2.770   2.549   1.459
  212SL       H 3178   2.758   2.410   1.568
  212SL       H 3179   3.003   2.498   1.502
  212SL       H 3180   2.969   2.462   1.675
  213SL       O 3181   1.970   3.216   4.003
  213SL       S 3182   2.086   3.138   3.968
  213SL       O 3183   2.103   3.001   4.013
  213SL       C 3184   2.108   3.145   3.791
  213SL       C 3185   2.252   3.192   3.771
  213SL       C 3186   2.279   3.294   3.881
  213SL       C 3187   2.233   3.231   4.010
  213SL       H 3188   2.089   3.047   3.747
  213SL       H 3189   2.038   3.218   3.751
  213SL       H 3190   2.267   3.235   3.671
  213SL       H 3191   2.321   3.107   3.782
  213SL       H 3192   2.221   3.386   3.861
  213SL       H 3193   2.384   3.323   3.886
  213SL       H 3194   2.209   3.304   4.088
  213SL       H 3195   2.307   3.160   4.048
  214SL       O 3196   2.710   3.824   2.929
  214SL       S 3197   2.639   3.799   3.052
  214SL       O 3198   2.706   3.797   3.181
  214SL       C 3199   2.499   3.910   3.061
  214SL       C 3200   2.378   3.820   3.085
  214SL       C 3201   2.403   3.694   3.003
  214SL       C 3202   2.543   3.649   3.035
  214SL       H 3203   2.514   3.983   3.142
  214SL       H 3204   2.491   3.962   2.966
  214SL       H 3205   2.285   3.870   3.056
  214SL       H 3206   2.371   3.794   3.192
  214SL       H 3207   2.394   3.718   2.896
  214SL       H 3208   2.329   3.616   3.025
  214SL       H 3209   2.587   3.587   2.957
  214SL       H 3210   2.547   3.597   3.131
  215SL       O 3211   0.841   2.420   1.678
  215SL       S 3212   0.793   2.356   1.558
  215SL       O 3213   0.701   2.422   1.467
  215SL       C 3214   0.933   2.296   1.466
  215SL       C 3215   0.905   2.148   1.441
  215SL       C 3216   0.837   2.096   1.568
  215SL       C 3217   0.727   2.195   1.600
  215SL       H 3218   0.944   2.352   1.373
  215SL       H 3219   1.023   2.309   1.528
  215SL       H 3220   0.997   2.093   1.419
  215SL       H 3221   0.837   2.136   1.356
  215SL       H 3222   0.911   2.094   1.651
  215SL       H 3223   0.798   1.995   1.556
  215SL       H 3224   0.698   2.194   1.706
  215SL       H 3225   0.639   2.178   1.537
  216SL       O 3226   2.915   1.685   1.030
  216SL       S 3227   2.782   1.637   1.058
  216SL       O 3228   2.670   1.667   0.971
  216SL       C 3229   2.789   1.461   1.084
  216SL       C 3230   2.722   1.438   1.220
  216SL       C 3231   2.763   1.556   1.308
  216SL       C 3232   2.738   1.681   1.225
  216SL       H 3233   2.738   1.408   1.003
  216SL       H 3234   2.894   1.431   1.088
  216SL       H 3235   2.752   1.343   1.264
  216SL       H 3236   2.613   1.437   1.208
  216SL       H 3237   2.870   1.548   1.332
  216SL       H 3238   2.707   1.558   1.402
  216SL       H 3239   2.797   1.766   1.258
  216SL       H 3240   2.631   1.707   1.226
  217SL       O 3241   0.765   3.917   1.985
  217SL       S 3242   0.625   3.886   2.003
  217SL       O 3243   0.578   3.799   2.110
  217SL       C 3244   0.533   4.038   2.007
  217SL       C 3245   0.424   4.022   1.901
  217SL       C 3246   0.489   3.946   1.786
  217SL       C 3247   0.558   3.827   1.848
  217SL       H 3248   0.491   4.055   2.107
  217SL       H 3249   0.601   4.120   1.982
  217SL       H 3250   0.386   4.120   1.868
  217SL       H 3251   0.340   3.964   1.941
  217SL       H 3252   0.563   4.011   1.736
  217SL       H 3253   0.416   3.915   1.711
  217SL       H 3254   0.640   3.787   1.786
  217SL       H 3255   0.487   3.747   1.871
  218SL       O 3256   0.898   0.993   0.704
  218SL       S 3257   0.806   1.103   0.718
  218SL       O 3258   0.851   1.238   0.743
  218SL       C 3259   0.696   1.104   0.578
  218SL       C 3260   0.556   1.103   0.637
  218SL       C 3261   0.562   1.014   0.761
  218SL       C 3262   0.682   1.060   0.840
  218SL       H 3263   0.715   1.191   0.515
  218SL       H 3264   0.714   1.012   0.520
  218SL       H 3265   0.482   1.067   0.564
  218SL       H 3266   0.527   1.205   0.666
  218SL       H 3267   0.575   0.909   0.729
  218SL       H 3268   0.470   1.019   0.820
  218SL       H 3269   0.722   0.983   0.907
  218SL       H 3270   0.659   1.151   0.897
  219SL       O 3271   0.559   1.955   1.815
  219SL       S 3272   0.472   2.011   1.715
  219SL       O 3273   0.475   2.152   1.681
  219SL       C 3274   0.487   1.915   1.566
  219SL       C 3275   0.344   1.875   1.530
  219SL       C 3276   0.273   1.847   1.663
  219SL       C 3277   0.303   1.965   1.752
  219SL       H 3278   0.535   1.975   1.488
  219SL       H 3279   0.547   1.827   1.588
  219SL       H 3280   0.342   1.788   1.464
  219SL       H 3281   0.293   1.958   1.478
  219SL       H 3282   0.314   1.754   1.707
  219SL       H 3283   0.166   1.833   1.650
  219SL       H 3284   0.294   1.942   1.859
  219SL       H 3285   0.239   2.050   1.727
  220SL       O 3286   3.280   3.120   1.716
  220SL       S 3287   3.183   3.013   1.729
  220SL       O 3288   3.165   2.913   1.626
  220SL       C 3289   3.210   2.931   1.885
  220SL       C 3290   3.074   2.933   1.955
  220SL       C 3291   3.011   3.068   1.920
  220SL       C 3292   3.024   3.083   1.770
  220SL       H 3293   3.247   2.830   1.869
  220SL       H 3294   3.283   2.989   1.942
  220SL       H 3295   3.084   2.921   2.063
  220SL       H 3296   3.011   2.852   1.917
  220SL       H 3297   3.066   3.149   1.972
  220SL       H 3298   2.906   3.074   1.952
  220SL       H 3299   3.021   3.187   1.737
  220SL       H 3300   2.948   3.025   1.718
  221SL       O 3301   1.206   2.426   1.696
  221SL       S 3302   1.235   2.398   1.558
  221SL       O 3303   1.161   2.460   1.449
  221SL       C 3304   1.410   2.422   1.530
  221SL       C 3305   1.458   2.292   1.467
  221SL       C 3306   1.381   2.180   1.536
  221SL       C 3307   1.235   2.221   1.532
  221SL       H 3308   1.426   2.509   1.466
  221SL       H 3309   1.457   2.439   1.627
  221SL       H 3310   1.567   2.280   1.480
  221SL       H 3311   1.436   2.292   1.360
  221SL       H 3312   1.415   2.171   1.641
  221SL       H 3313   1.397   2.084   1.488
  221SL       H 3314   1.175   2.173   1.610
  221SL       H 3315   1.192   2.202   1.434
  222SL       O 3316   2.127   1.022   2.029
  222SL       S 3317   2.145   0.909   2.118
  222SL       O 3318   2.271   0.883   2.184
  222SL       C 3319   2.015   0.912   2.240
  222SL       C 3320   1.951   0.774   2.232
  222SL       C 3321   1.951   0.735   2.085
  222SL       C 3322   2.091   0.761   2.035
  222SL       H 3323   2.056   0.934   2.338
  222SL       H 3324   1.943   0.989   2.211
  222SL       H 3325   1.849   0.774   2.274
  222SL       H 3326   2.010   0.702   2.290
  222SL       H 3327   1.879   0.798   2.030
  222SL       H 3328   1.921   0.630   2.070
  222SL       H 3329   2.096   0.776   1.926
  222SL       H 3330   2.159   0.680   2.064
  223SL       O 3331   3.169   0.851   2.016
  223SL       S 3332   3.145   0.993   2.022
  223SL       O 3333   3.170   1.081   1.909
  223SL       C 3334   2.978   1.019   2.079
  223SL       C 3335   2.991   1.114   2.199
  223SL       C 3336   3.119   1.072   2.272
  223SL       C 3337   3.226   1.061   2.166
  223SL       H 3338   2.917   1.062   1.999
  223SL       H 3339   2.937   0.923   2.111
  223SL       H 3340   2.904   1.108   2.264
  223SL       H 3341   3.001   1.217   2.164
  223SL       H 3342   3.103   0.974   2.320
  223SL       H 3343   3.146   1.143   2.350
  223SL       H 3344   3.309   0.995   2.195
  223SL       H 3345   3.265   1.159   2.139
  224SL       O 3346   3.887   0.819   1.648
  224SL       S 3347   3.900   0.743   1.526
  224SL       O 3348   3.928   0.806   1.398
  224SL       C 3349   4.018   0.612   1.553
  224SL       C 3350   3.946   0.484   1.512
  224SL       C 3351   3.801   0.501   1.557
  224SL       C 3352   3.758   0.637   1.508
  224SL       H 3353   4.109   0.630   1.494
  224SL       H 3354   4.043   0.611   1.660
  224SL       H 3355   3.993   0.396   1.558
  224SL       H 3356   3.950   0.472   1.404
  224SL       H 3357   3.797   0.498   1.668
  224SL       H 3358   3.737   0.421   1.519
  224SL       H 3359   3.674   0.678   1.564
  224SL       H 3360   3.732   0.634   1.401
  225SL       O 3361   2.740   0.365   2.106
  225SL       S 3362   2.832   0.316   2.007
  225SL       O 3363   2.795   0.300   1.868
  225SL       C 3364   2.982   0.412   2.016
  225SL       C 3365   3.094   0.309   2.033
  225SL       C 3366   3.038   0.200   2.123
  225SL       C 3367   2.903   0.163   2.065
  225SL       H 3368   2.994   0.472   1.926
  225SL       H 3369   2.976   0.477   2.104
  225SL       H 3370   3.184   0.355   2.076
  225SL       H 3371   3.121   0.267   1.935
  225SL       H 3372   3.026   0.239   2.225
  225SL       H 3373   3.105   0.113   2.129
  225SL       H 3374   2.836   0.117   2.139
  225SL       H 3375   2.915   0.096   1.979
  226SL       O 3376   3.694   2.689   0.822
  226SL       S 3377   3.807   2.645   0.901
  226SL       O 3378   3.790   2.580   1.030
  226SL       C 3379   3.913   2.545   0.799
  226SL       C 3380   4.051   2.608   0.811
  226SL       C 3381   4.029   2.759   0.817
  226SL       C 3382   3.921   2.781   0.921
  226SL       H 3383   3.911   2.441   0.833
  226SL       H 3384   3.876   2.551   0.696
  226SL       H 3385   4.115   2.580   0.727
  226SL       H 3386   4.100   2.574   0.903
  226SL       H 3387   3.994   2.794   0.718
  226SL       H 3388   4.120   2.813   0.841
  226SL       H 3389   3.868   2.876   0.908
  226SL       H 3390   3.962   2.775   1.022
  227SL       O 3391   3.920   0.277   0.716
  227SL       S 3392   3.946   0.392   0.633
  227SL       O 3393   4.068   0.406   0.556
  227SL       C 3394   3.807   0.416   0.524
  227SL       C 3395   3.764   0.561   0.546
  227SL       C 3396   3.783   0.589   0.695
  227SL       C 3397   3.922   0.540   0.729
  227SL       H 3398   3.836   0.396   0.421
  227SL       H 3399   3.728   0.347   0.555
  227SL       H 3400   3.660   0.577   0.514
  227SL       H 3401   3.828   0.628   0.487
  227SL       H 3402   3.707   0.532   0.752
  227SL       H 3403   3.770   0.695   0.719
  227SL       H 3404   3.934   0.517   0.835
  227SL       H 3405   3.997   0.613   0.698
  228SL       O 3406   4.081   0.545   2.055
  228SL       S 3407   3.965   0.627   2.083
  228SL       O 3408   3.838   0.569   2.125
  228SL       C 3409   4.012   0.753   2.200
  228SL       C 3410   3.969   0.885   2.135
  228SL       C 3411   3.997   0.869   1.985
  228SL       C 3412   3.936   0.736   1.945
  228SL       H 3413   3.962   0.736   2.296
  228SL       H 3414   4.120   0.749   2.212
  228SL       H 3415   4.024   0.970   2.177
  228SL       H 3416   3.862   0.902   2.151
  228SL       H 3417   4.106   0.867   1.968
  228SL       H 3418   3.955   0.951   1.927
  228SL       H 3419   3.980   0.694   1.855
  228SL       H 3420   3.827   0.745   1.932
  229SL       O 3421   0.418   0.767   0.396
  229SL       S 3422   0.404   0.825   0.264
  229SL       O 3423   0.338   0.755   0.156
  229SL       C 3424   0.330   0.987   0.282
  229SL       C 3425   0.424   1.081   0.208
  229SL       C 3426   0.566   1.030   0.236
  229SL       C 3427   0.563   0.882   0.207
  229SL       H 3428   0.229   0.987   0.239
  229SL       H 3429   0.326   1.011   0.388
  229SL       H 3430   0.411   1.185   0.241
  229SL       H 3431   0.405   1.078   0.100
  229SL       H 3432   0.591   1.049   0.342
  229SL       H 3433   0.640   1.082   0.175
  229SL       H 3434   0.642   0.827   0.260
  229SL       H 3435   0.569   0.862   0.100
  230SL       O 3436   0.683   2.468   2.108
  230SL       S 3437   0.661   2.498   2.248
  230SL       O 3438   0.538   2.460   2.315
  230SL       C 3439   0.800   2.436   2.341
  230SL       C 3440   0.849   2.556   2.423
  230SL       C 3441   0.833   2.678   2.332
  230SL       C 3442   0.692   2.671   2.276
  230SL       H 3443   0.769   2.353   2.405
  230SL       H 3444   0.877   2.403   2.271
  230SL       H 3445   0.952   2.543   2.455
  230SL       H 3446   0.787   2.568   2.512
  230SL       H 3447   0.907   2.672   2.250
  230SL       H 3448   0.850   2.771   2.386
  230SL       H 3449   0.681   2.726   2.183
  230SL       H 3450   0.619   2.706   2.350
  231SL       O 3451   3.466   1.980   3.128
  231SL       S 3452   3.516   2.108   3.171
  231SL       O 3453   3.544   2.136   3.311
  231SL       C 3454   3.660   2.147   3.074
  231SL       C 3455   3.632   2.286   3.016
  231SL       C 3456   3.483   2.288   2.983
  231SL       C 3457   3.412   2.237   3.106
  231SL       H 3458   3.750   2.146   3.137
  231SL       H 3459   3.669   2.073   2.994
  231SL       H 3460   3.694   2.306   2.928
  231SL       H 3461   3.655   2.363   3.091
  231SL       H 3462   3.464   2.222   2.897
  231SL       H 3463   3.449   2.388   2.955
  231SL       H 3464   3.313   2.196   3.084
  231SL       H 3465   3.404   2.315   3.182
  232SL       O 3466   0.899   0.377   3.142
  232SL       S 3467   0.834   0.351   3.016
  232SL       O 3468   0.878   0.246   2.927
  232SL       C 3469   0.659   0.332   3.046
  232SL       C 3470   0.591   0.431   2.951
  232SL       C 3471   0.681   0.555   2.948
  232SL       C 3472   0.822   0.504   2.924
  232SL       H 3473   0.629   0.229   3.027
  232SL       H 3474   0.639   0.358   3.150
  232SL       H 3475   0.490   0.455   2.985
  232SL       H 3476   0.584   0.388   2.851
  232SL       H 3477   0.675   0.606   3.046
  232SL       H 3478   0.650   0.626   2.871
  232SL       H 3479   0.899   0.573   2.959
  232SL       H 3480   0.837   0.480   2.819
  233SL       O 3481   3.956   1.742   2.850
  233SL       S 3482   4.002   1.754   2.987
  233SL       O 3483   4.113   1.840   3.023
  233SL       C 3484   3.862   1.792   3.090
  233SL       C 3485   3.864   1.686   3.200
  233SL       C 3486   3.908   1.556   3.133
  233SL       C 3487   4.032   1.591   3.053
  233SL       H 3488   3.871   1.894   3.130
  233SL       H 3489   3.772   1.784   3.030
  233SL       H 3490   3.766   1.676   3.247
  233SL       H 3491   3.936   1.714   3.278
  233SL       H 3492   3.828   1.521   3.066
  233SL       H 3493   3.928   1.477   3.206
  233SL       H 3494   4.050   1.521   2.971
  233SL       H 3495   4.120   1.596   3.117
  234SL       O 3496   1.417   0.686   1.789
  234SL       S 3497   1.355   0.811   1.752
  234SL       O 3498   1.431   0.934   1.738
  234SL       C 3499   1.259   0.785   1.604
  234SL       C 3500   1.119   0.836   1.638
  234SL       C 3501   1.094   0.797   1.783
  234SL       C 3502   1.217   0.841   1.860
  234SL       H 3503   1.304   0.839   1.520
  234SL       H 3504   1.258   0.678   1.582
  234SL       H 3505   1.044   0.793   1.571
  234SL       H 3506   1.115   0.945   1.628
  234SL       H 3507   1.083   0.687   1.790
  234SL       H 3508   1.003   0.842   1.823
  234SL       H 3509   1.230   0.786   1.954
  234SL       H 3510   1.213   0.949   1.881
  235SL       O 3511   3.716   1.426   3.230
  235SL       S 3512   3.586   1.443   3.291
  235SL       O 3513   3.567   1.440   3.434
  235SL       C 3514   3.513   1.593   3.226
  235SL       C 3515   3.377   1.551   3.173
  235SL       C 3516   3.396   1.412   3.112
  235SL       C 3517   3.470   1.331   3.215
  235SL       H 3518   3.507   1.668   3.305
  235SL       H 3519   3.577   1.629   3.145
  235SL       H 3520   3.338   1.622   3.100
  235SL       H 3521   3.304   1.545   3.256
  235SL       H 3522   3.456   1.421   3.020
  235SL       H 3523   3.301   1.366   3.085
  235SL       H 3524   3.524   1.246   3.172
  235SL       H 3525   3.403   1.295   3.294
  236SL       O 3526   1.900   3.067   1.584
  236SL       S 3527   1.905   3.201   1.531
  236SL       O 3528   1.833   3.240   1.412
  236SL       C 3529   1.866   3.315   1.663
  236SL       C 3530   1.981   3.414   1.666
  236SL       C 3531   2.108   3.333   1.636
  236SL       C 3532   2.076   3.250   1.513
  236SL       H 3533   1.769   3.363   1.643
  236SL       H 3534   1.861   3.258   1.756
  236SL       H 3535   1.988   3.465   1.763
  236SL       H 3536   1.967   3.490   1.588
  236SL       H 3537   2.130   3.267   1.722
  236SL       H 3538   2.195   3.397   1.620
  236SL       H 3539   2.139   3.161   1.504
  236SL       H 3540   2.084   3.310   1.422
  237SL       O 3541   1.003   1.416   2.225
  237SL       S 3542   0.866   1.461   2.216
  237SL       O 3543   0.764   1.384   2.147
  237SL       C 3544   0.808   1.500   2.380
  237SL       C 3545   0.755   1.642   2.371
  237SL       C 3546   0.849   1.717   2.276
  237SL       C 3547   0.863   1.628   2.154
  237SL       H 3548   0.731   1.428   2.411
  237SL       H 3549   0.893   1.494   2.448
  237SL       H 3550   0.751   1.690   2.469
  237SL       H 3551   0.653   1.642   2.329
  237SL       H 3552   0.947   1.730   2.325
  237SL       H 3553   0.811   1.815   2.250
  237SL       H 3554   0.955   1.648   2.098
  237SL       H 3555   0.777   1.638   2.088
  238SL       O 3556   2.665   2.054   1.214
  238SL       S 3557   2.807   2.078   1.214
  238SL       O 3558   2.901   1.982   1.268
  238SL       C 3559   2.857   2.120   1.048
  238SL       C 3560   2.932   2.253   1.062
  238SL       C 3561   2.858   2.332   1.169
  238SL       C 3562   2.840   2.237   1.286
  238SL       H 3563   2.920   2.041   1.006
  238SL       H 3564   2.767   2.133   0.987
  238SL       H 3565   2.935   2.307   0.967
  238SL       H 3566   3.035   2.234   1.094
  238SL       H 3567   2.760   2.363   1.130
  238SL       H 3568   2.913   2.422   1.199
  238SL       H 3569   2.757   2.266   1.352
  238SL       H 3570   2.932   2.229   1.345
  239SL       O 3571   0.747   0.431   3.663
  239SL       S 3572   0.733   0.409   3.521
  239SL       O 3573   0.673   0.289   3.467
  239SL       C 3574   0.653   0.551   3.450
  239SL       C 3575   0.744   0.597   3.336
  239SL       C 3576   0.887   0.575   3.387
  239SL       C 3577   0.891   0.434   3.442
  239SL       H 3578   0.553   0.524   3.414
  239SL       H 3579   0.645   0.628   3.527
  239SL       H 3580   0.726   0.701   3.310
  239SL       H 3581   0.727   0.535   3.247
  239SL       H 3582   0.909   0.648   3.466
  239SL       H 3583   0.961   0.590   3.308
  239SL       H 3584   0.972   0.420   3.515
  239SL       H 3585   0.901   0.361   3.362
  240SL       O 3586   0.394   0.588   2.275
  240SL       S 3587   0.324   0.469   2.235
  240SL       O 3588   0.290   0.443   2.096
  240SL       C 3589   0.410   0.327   2.301
  240SL       C 3590   0.303   0.248   2.377
  240SL       C 3591   0.212   0.352   2.442
  240SL       C 3592   0.177   0.451   2.334
  240SL       H 3593   0.455   0.269   2.220
  240SL       H 3594   0.487   0.363   2.369
  240SL       H 3595   0.348   0.182   2.451
  240SL       H 3596   0.244   0.187   2.307
  240SL       H 3597   0.268   0.403   2.523
  240SL       H 3598   0.123   0.307   2.486
  240SL       H 3599   0.147   0.549   2.373
  240SL       H 3600   0.098   0.412   2.269
  241SL       O 3601   2.534   3.371   3.198
  241SL       S 3602   2.612   3.317   3.089
  241SL       O 3603   2.573   3.336   2.951
  241SL       C 3604   2.781   3.368   3.109
  241SL       C 3605   2.862   3.238   3.105
  241SL       C 3606   2.778   3.133   3.177
  241SL       C 3607   2.639   3.143   3.118
  241SL       H 3608   2.809   3.438   3.030
  241SL       H 3609   2.791   3.416   3.207
  241SL       H 3610   2.960   3.251   3.152
  241SL       H 3611   2.878   3.208   3.000
  241SL       H 3612   2.775   3.156   3.284
  241SL       H 3613   2.820   3.033   3.165
  241SL       H 3614   2.561   3.104   3.184
  241SL       H 3615   2.634   3.092   3.021
  242SL       O 3616   0.606   3.064   3.229
  242SL       S 3617   0.512   3.076   3.120
  242SL       O 3618   0.527   3.000   2.997
  242SL       C 3619   0.347   3.049   3.184
  242SL       C 3620   0.267   3.171   3.139
  242SL       C 3621   0.363   3.291   3.148
  242SL       C 3622   0.490   3.248   3.079
  242SL       H 3623   0.306   2.956   3.145
  242SL       H 3624   0.353   3.045   3.293
  242SL       H 3625   0.178   3.186   3.200
  242SL       H 3626   0.235   3.159   3.035
  242SL       H 3627   0.383   3.313   3.255
  242SL       H 3628   0.320   3.381   3.103
  242SL       H 3629   0.578   3.305   3.112
  242SL       H 3630   0.480   3.255   2.970
  243SL       O 3631   2.894   4.116   3.790
  243SL       S 3632   2.921   3.991   3.723
  243SL       O 3633   2.816   3.910   3.665
  243SL       C 3634   3.047   4.018   3.600
  243SL       C 3635   3.156   3.916   3.631
  243SL       C 3636   3.163   3.905   3.783
  243SL       C 3637   3.020   3.888   3.830
  243SL       H 3638   3.005   4.006   3.500
  243SL       H 3639   3.086   4.120   3.613
  243SL       H 3640   3.252   3.945   3.588
  243SL       H 3641   3.129   3.818   3.589
  243SL       H 3642   3.205   3.999   3.824
  243SL       H 3643   3.227   3.823   3.816
  243SL       H 3644   3.006   3.919   3.934
  243SL       H 3645   2.987   3.785   3.817
  244SL       O 3646   0.737   3.111   1.268
  244SL       S 3647   0.798   3.217   1.343
  244SL       O 3648   0.802   3.354   1.294
  244SL       C 3649   0.731   3.217   1.508
  244SL       C 3650   0.852   3.211   1.601
  244SL       C 3651   0.953   3.120   1.532
  244SL       C 3652   0.963   3.168   1.389
  244SL       H 3653   0.670   3.307   1.524
  244SL       H 3654   0.669   3.128   1.519
  244SL       H 3655   0.824   3.174   1.700
  244SL       H 3656   0.895   3.311   1.613
  244SL       H 3657   0.916   3.016   1.534
  244SL       H 3658   1.050   3.121   1.582
  244SL       H 3659   0.999   3.091   1.320
  244SL       H 3660   1.028   3.257   1.383
  245SL       O 3661   2.279   3.959   2.855
  245SL       S 3662   2.142   4.004   2.847
  245SL       O 3663   2.101   4.114   2.762
  245SL       C 3664   2.038   3.863   2.812
  245SL       C 3665   1.932   3.864   2.921
  245SL       C 3666   2.002   3.909   3.049
  245SL       C 3667   2.080   4.033   3.012
  245SL       H 3668   1.996   3.871   2.712
  245SL       H 3669   2.100   3.773   2.819
  245SL       H 3670   1.886   3.765   2.933
  245SL       H 3671   1.852   3.935   2.896
  245SL       H 3672   2.071   3.829   3.083
  245SL       H 3673   1.931   3.928   3.130
  245SL       H 3674   2.164   4.052   3.080
  245SL       H 3675   2.015   4.121   3.008
  246SL       O 3676   2.837   0.406   0.815
  246SL       S 3677   2.920   0.327   0.728
  246SL       O 3678   2.876   0.285   0.597
  246SL       C 3679   3.079   0.408   0.713
  246SL       C 3680   3.181   0.301   0.750
  246SL       C 3681   3.119   0.219   0.863
  246SL       C 3682   2.979   0.184   0.817
  246SL       H 3683   3.092   0.445   0.611
  246SL       H 3684   3.082   0.491   0.784
  246SL       H 3685   3.276   0.346   0.780
  246SL       H 3686   3.200   0.235   0.664
  246SL       H 3687   3.114   0.282   0.954
  246SL       H 3688   3.177   0.130   0.887
  246SL       H 3689   2.911   0.162   0.900
  246SL       H 3690   2.981   0.100   0.748
  247SL       O 3691   2.081   1.709   0.290
  247SL       S 3692   2.123   1.578   0.333
  247SL       O 3693   2.052   1.504   0.435
  247SL       C 3694   2.142   1.475   0.188
  247SL       C 3695   2.284   1.419   0.198
  247SL       C 3696   2.370   1.532   0.255
  247SL       C 3697   2.296   1.584   0.376
  247SL       H 3698   2.066   1.397   0.188
  247SL       H 3699   2.132   1.538   0.100
  247SL       H 3700   2.320   1.386   0.101
  247SL       H 3701   2.286   1.333   0.266
  247SL       H 3702   2.381   1.611   0.179
  247SL       H 3703   2.471   1.497   0.281
  247SL       H 3704   2.324   1.687   0.402
  247SL       H 3705   2.311   1.519   0.463
  248SL       O 3706   1.021   2.638   1.061
  248SL       S 3707   1.062   2.596   1.193
  248SL       O 3708   1.086   2.457   1.225
  248SL       C 3709   1.205   2.692   1.240
  248SL       C 3710   1.168   2.753   1.375
  248SL       C 3711   1.020   2.788   1.368
  248SL       C 3712   0.951   2.665   1.313
  248SL       H 3713   1.293   2.628   1.245
  248SL       H 3714   1.219   2.770   1.165
  248SL       H 3715   1.230   2.841   1.397
  248SL       H 3716   1.185   2.679   1.455
  248SL       H 3717   1.006   2.873   1.298
  248SL       H 3718   0.980   2.817   1.465
  248SL       H 3719   0.854   2.687   1.266
  248SL       H 3720   0.936   2.590   1.392
  249SL       O 3721   2.776   0.747   0.861
  249SL       S 3722   2.785   0.857   0.768
  249SL       O 3723   2.779   0.837   0.625
  249SL       C 3724   2.665   0.980   0.815
  249SL       C 3725   2.744   1.110   0.828
  249SL       C 3726   2.879   1.071   0.889
  249SL       C 3727   2.929   0.954   0.807
  249SL       H 3728   2.586   0.987   0.739
  249SL       H 3729   2.622   0.951   0.911
  249SL       H 3730   2.691   1.183   0.890
  249SL       H 3731   2.760   1.155   0.729
  249SL       H 3732   2.864   1.041   0.994
  249SL       H 3733   2.949   1.154   0.888
  249SL       H 3734   3.002   0.892   0.861
  249SL       H 3735   2.973   0.988   0.713
  250SL       O 3736   1.421   2.711   0.630
  250SL       S 3737   1.340   2.741   0.747
  250SL       O 3738   1.399   2.786   0.871
  250SL       C 3739   1.211   2.854   0.699
  250SL       C 3740   1.081   2.788   0.745
  250SL       C 3741   1.100   2.638   0.721
  250SL       C 3742   1.234   2.602   0.781
  250SL       H 3743   1.227   2.951   0.745
  250SL       H 3744   1.213   2.864   0.590
  250SL       H 3745   0.995   2.827   0.690
  250SL       H 3746   1.066   2.806   0.852
  250SL       H 3747   1.100   2.618   0.612
  250SL       H 3748   1.019   2.579   0.765
  250SL       H 3749   1.277   2.511   0.738
  250SL       H 3750   1.227   2.591   0.890
  251SL       O 3751   2.988   1.489   0.251
  251SL       S 3752   3.100   1.433   0.323
  251SL       O 3753   3.091   1.399   0.464
  251SL       C 3754   3.161   1.292   0.233
  251SL       C 3755   3.310   1.319   0.214
  251SL       C 3756   3.323   1.469   0.189
  251SL       C 3757   3.243   1.537   0.298
  251SL       H 3758   3.141   1.200   0.289
  251SL       H 3759   3.109   1.289   0.136
  251SL       H 3760   3.351   1.261   0.130
  251SL       H 3761   3.365   1.291   0.304
  251SL       H 3762   3.281   1.494   0.090
  251SL       H 3763   3.427   1.502   0.190
  251SL       H 3764   3.211   1.638   0.271
  251SL       H 3765   3.299   1.539   0.392
  252SL       O 3766   1.285   3.181   0.921
  252SL       S 3767   1.196   3.165   1.033
  252SL       O 3768   1.236   3.197   1.169
  252SL       C 3769   1.043   3.249   0.997
  252SL       C 3770   0.934   3.145   1.018
  252SL       C 3771   0.991   3.012   0.968
  252SL       C 3772   1.128   3.000   1.031
  252SL       H 3773   1.031   3.336   1.062
  252SL       H 3774   1.046   3.282   0.892
  252SL       H 3775   0.842   3.172   0.965
  252SL       H 3776   0.910   3.136   1.125
  252SL       H 3777   1.001   3.016   0.858
  252SL       H 3778   0.927   2.928   0.993
  252SL       H 3779   1.195   2.934   0.976
  252SL       H 3780   1.120   2.966   1.135
  253SL       O 3781   2.503   2.935   1.669
  253SL       S 3782   2.456   3.021   1.563
  253SL       O 3783   2.342   2.987   1.481
  253SL       C 3784   2.433   3.185   1.630
  253SL       C 3785   2.513   3.277   1.539
  253SL       C 3786   2.640   3.199   1.501
  253SL       C 3787   2.593   3.063   1.456
  253SL       H 3788   2.326   3.210   1.631
  253SL       H 3789   2.473   3.187   1.732
  253SL       H 3790   2.537   3.372   1.588
  253SL       H 3791   2.456   3.300   1.448
  253SL       H 3792   2.704   3.190   1.590
  253SL       H 3793   2.697   3.250   1.423
  253SL       H 3794   2.671   2.986   1.465
  253SL       H 3795   2.555   3.066   1.354
  254SL       O 3796   3.914   3.715   1.963
  254SL       S 3797   3.885   3.781   1.837
  254SL       O 3798   3.950   3.742   1.713
  254SL       C 3799   3.709   3.780   1.813
  254SL       C 3800   3.671   3.925   1.787
  254SL       C 3801   3.761   4.009   1.879
  254SL       C 3802   3.901   3.957   1.858
  254SL       H 3803   3.682   3.714   1.729
  254SL       H 3804   3.662   3.743   1.904
  254SL       H 3805   3.565   3.943   1.807
  254SL       H 3806   3.691   3.951   1.682
  254SL       H 3807   3.730   3.994   1.983
  254SL       H 3808   3.753   4.115   1.857
  254SL       H 3809   3.968   3.978   1.942
  254SL       H 3810   3.945   3.997   1.766
  255SL       O 3811   2.739   0.101   1.164
  255SL       S 3812   2.808   0.176   1.266
  255SL       O 3813   2.779   0.160   1.407
  255SL       C 3814   2.984   0.158   1.241
  255SL       C 3815   3.038   0.300   1.234
  255SL       C 3816   2.933   0.382   1.160
  255SL       C 3817   2.800   0.350   1.226
  255SL       H 3818   3.028   0.100   1.323
  255SL       H 3819   2.999   0.106   1.146
  255SL       H 3820   3.135   0.303   1.183
  255SL       H 3821   3.051   0.340   1.335
  255SL       H 3822   2.931   0.352   1.054
  255SL       H 3823   2.954   0.489   1.163
  255SL       H 3824   2.715   0.368   1.161
  255SL       H 3825   2.789   0.405   1.320
  256SL       O 3826   3.485   3.525   2.847
  256SL       S 3827   3.556   3.485   2.728
  256SL       O 3828   3.517   3.531   2.596
  256SL       C 3829   3.730   3.518   2.752
  256SL       C 3830   3.799   3.385   2.722
  256SL       C 3831   3.708   3.276   2.777
  256SL       C 3832   3.569   3.307   2.725
  256SL       H 3833   3.762   3.598   2.685
  256SL       H 3834   3.745   3.547   2.856
  256SL       H 3835   3.899   3.381   2.767
  256SL       H 3836   3.811   3.373   2.613
  256SL       H 3837   3.709   3.280   2.887
  256SL       H 3838   3.741   3.176   2.747
  256SL       H 3839   3.490   3.263   2.786
  256SL       H 3840   3.558   3.275   2.621
  257SL       O 3841   1.727   0.533   2.105
  257SL       S 3842   1.792   0.457   2.001
  257SL       O 3843   1.811   0.509   1.867
  257SL       C 3844   1.949   0.400   2.063
  257SL       C 3845   1.948   0.249   2.040
  257SL       C 3846   1.805   0.203   2.068
  257SL       C 3847   1.716   0.296   1.990
  257SL       H 3848   2.031   0.449   2.010
  257SL       H 3849   1.954   0.423   2.170
  257SL       H 3850   2.020   0.198   2.106
  257SL       H 3851   1.975   0.226   1.936
  257SL       H 3852   1.784   0.211   2.176
  257SL       H 3853   1.789   0.099   2.039
  257SL       H 3854   1.614   0.301   2.030
  257SL       H 3855   1.712   0.268   1.884
  258SL       O 3856   2.953   2.199   1.736
  258SL       S 3857   2.909   2.211   1.873
  258SL       O 3858   2.996   2.264   1.977
  258SL       C 3859   2.755   2.301   1.876
  258SL       C 3860   2.659   2.211   1.954
  258SL       C 3861   2.693   2.068   1.914
  258SL       C 3862   2.843   2.055   1.927
  258SL       H 3863   2.769   2.398   1.923
  258SL       H 3864   2.721   2.314   1.773
  258SL       H 3865   2.555   2.236   1.932
  258SL       H 3866   2.674   2.224   2.062
  258SL       H 3867   2.662   2.051   1.809
  258SL       H 3868   2.640   1.995   1.976
  258SL       H 3869   2.884   1.974   1.866
  258SL       H 3870   2.872   2.041   2.032
  259SL       O 3871   3.811   1.368   0.733
  259SL       S 3872   3.792   1.355   0.591
  259SL       O 3873   3.902   1.372   0.497
  259SL       C 3874   3.713   1.198   0.559
  259SL       C 3875   3.590   1.233   0.474
  259SL       C 3876   3.537   1.365   0.530
  259SL       C 3877   3.656   1.458   0.539
  259SL       H 3878   3.781   1.131   0.507
  259SL       H 3879   3.683   1.155   0.654
  259SL       H 3880   3.515   1.154   0.479
  259SL       H 3881   3.619   1.246   0.369
  259SL       H 3882   3.494   1.348   0.630
  259SL       H 3883   3.458   1.407   0.467
  259SL       H 3884   3.642   1.538   0.612
  259SL       H 3885   3.681   1.500   0.442
  260SL       O 3886   3.299   0.998   2.415
  260SL       S 3887   3.363   0.998   2.544
  260SL       O 3888   3.507   0.987   2.559
  260SL       C 3889   3.306   1.140   2.636
  260SL       C 3890   3.255   1.084   2.768
  260SL       C 3891   3.187   0.951   2.734
  260SL       C 3892   3.286   0.875   2.648
  260SL       H 3893   3.388   1.211   2.650
  260SL       H 3894   3.225   1.187   2.579
  260SL       H 3895   3.185   1.153   2.816
  260SL       H 3896   3.338   1.066   2.837
  260SL       H 3897   3.094   0.970   2.678
  260SL       H 3898   3.161   0.894   2.824
  260SL       H 3899   3.238   0.799   2.585
  260SL       H 3900   3.364   0.829   2.708
  261SL       O 3901   1.291   3.352   3.523
  261SL       S 3902   1.210   3.314   3.637
  261SL       O 3903   1.262   3.317   3.772
  261SL       C 3904   1.058   3.407   3.632
  261SL       C 3905   0.948   3.302   3.640
  261SL       C 3906   0.997   3.182   3.559
  261SL       C 3907   1.137   3.154   3.607
  261SL       H 3908   1.055   3.478   3.714
  261SL       H 3909   1.054   3.460   3.536
  261SL       H 3910   0.853   3.341   3.601
  261SL       H 3911   0.932   3.272   3.744
  261SL       H 3912   0.997   3.209   3.452
  261SL       H 3913   0.932   3.095   3.571
  261SL       H 3914   1.198   3.100   3.533
  261SL       H 3915   1.137   3.100   3.701
  262SL       O 3916   4.101   1.719   3.505
  262SL       S 3917   4.021   1.804   3.591
  262SL       O 3918   4.020   1.788   3.735
  262SL       C 3919   4.057   1.974   3.551
  262SL       C 3920   3.921   2.037   3.522
  262SL       C 3921   3.839   1.931   3.450
  262SL       C 3922   3.853   1.804   3.532
  262SL       H 3923   4.109   2.022   3.634
  262SL       H 3924   4.120   1.976   3.462
  262SL       H 3925   3.930   2.128   3.463
  262SL       H 3926   3.871   2.064   3.617
  262SL       H 3927   3.880   1.915   3.349
  262SL       H 3928   3.734   1.960   3.439
  262SL       H 3929   3.835   1.713   3.473
  262SL       H 3930   3.787   1.806   3.619
  263SL       O 3931   0.712   1.420   1.324
  263SL       S 3932   0.582   1.416   1.260
  263SL       O 3933   0.547   1.506   1.152
  263SL       C 3934   0.551   1.248   1.207
  263SL       C 3935   0.416   1.212   1.268
  263SL       C 3936   0.412   1.278   1.406
  263SL       C 3937   0.455   1.421   1.384
  263SL       H 3938   0.552   1.242   1.098
  263SL       H 3939   0.630   1.184   1.248
  263SL       H 3940   0.403   1.103   1.274
  263SL       H 3941   0.335   1.252   1.205
  263SL       H 3942   0.483   1.226   1.472
  263SL       H 3943   0.313   1.272   1.451
  263SL       H 3944   0.495   1.468   1.475
  263SL       H 3945   0.373   1.482   1.345
  264SL       O 3946   1.917   1.804   1.922
  264SL       S 3947   1.897   1.721   2.038
  264SL       O 3948   1.935   1.764   2.171
  264SL       C 3949   1.727   1.669   2.041
  264SL       C 3950   1.732   1.516   2.052
  264SL       C 3951   1.851   1.472   1.966
  264SL       C 3952   1.967   1.560   2.007
  264SL       H 3953   1.675   1.715   2.125
  264SL       H 3954   1.680   1.699   1.947
  264SL       H 3955   1.639   1.470   2.018
  264SL       H 3956   1.749   1.487   2.156
  264SL       H 3957   1.827   1.488   1.860
  264SL       H 3958   1.874   1.366   1.979
  264SL       H 3959   2.044   1.567   1.930
  264SL       H 3960   2.012   1.525   2.101
  265SL       O 3961   2.364   2.201   2.787
  265SL       S 3962   2.438   2.078   2.767
  265SL       O 3963   2.514   2.053   2.647
  265SL       C 3964   2.542   2.052   2.909
  265SL       C 3965   2.509   1.911   2.958
  265SL       C 3966   2.358   1.895   2.938
  265SL       C 3967   2.329   1.940   2.797
  265SL       H 3968   2.648   2.062   2.881
  265SL       H 3969   2.517   2.127   2.985
  265SL       H 3970   2.537   1.898   3.063
  265SL       H 3971   2.562   1.837   2.898
  265SL       H 3972   2.305   1.959   3.010
  265SL       H 3973   2.326   1.792   2.956
  265SL       H 3974   2.225   1.971   2.782
  265SL       H 3975   2.355   1.861   2.725
  266SL       O 3976   0.962   1.921   1.940
  266SL       S 3977   0.864   2.023   1.910
  266SL       O 3978   0.772   2.009   1.798
  266SL       C 3979   0.771   2.059   2.058
  266SL       C 3980   0.782   2.210   2.075
  266SL       C 3981   0.923   2.248   2.031
  266SL       C 3982   0.945   2.181   1.898
  266SL       H 3983   0.668   2.025   2.047
  266SL       H 3984   0.819   2.007   2.141
  266SL       H 3985   0.762   2.240   2.178
  266SL       H 3986   0.709   2.261   2.010
  266SL       H 3987   0.996   2.210   2.106
  266SL       H 3988   0.937   2.356   2.025
  266SL       H 3989   1.051   2.166   1.874
  266SL       H 3990   0.897   2.237   1.817
  267SL       O 3991   3.450   3.799   3.470
  267SL       S 3992   3.456   3.856   3.337
  267SL       O 3993   3.576   3.850   3.256
  267SL       C 3994   3.319   3.793   3.242
  267SL       C 3995   3.248   3.917   3.187
  267SL       C 3996   3.256   4.022   3.298
  267SL       C 3997   3.400   4.025   3.343
  267SL       H 3998   3.355   3.727   3.162
  267SL       H 3999   3.253   3.737   3.309
  267SL       H 4000   3.145   3.895   3.159
  267SL       H 4001   3.300   3.954   3.098
  267SL       H 4002   3.190   3.991   3.382
  267SL       H 4003   3.222   4.120   3.264
  267SL       H 4004   3.412   4.064   3.445
  267SL       H 4005   3.462   4.083   3.274
  268SL       O 4006   2.763   3.474   0.569
  268SL       S 4007   2.713   3.564   0.467
  268SL       O 4008   2.740   3.544   0.326
  268SL       C 4009   2.538   3.584   0.491
  268SL       C 4010   2.515   3.735   0.499
  268SL       C 4011   2.635   3.791   0.576
  268SL       C 4012   2.758   3.731   0.510
  268SL       H 4013   2.483   3.538   0.408
  268SL       H 4014   2.510   3.535   0.585
  268SL       H 4015   2.421   3.758   0.549
  268SL       H 4016   2.512   3.778   0.399
  268SL       H 4017   2.629   3.759   0.681
  268SL       H 4018   2.637   3.900   0.574
  268SL       H 4019   2.845   3.730   0.577
  268SL       H 4020   2.783   3.784   0.418
  269SL       O 4021   1.896   3.006   3.587
  269SL       S 4022   1.837   3.073   3.473
  269SL       O 4023   1.694   3.095   3.463
  269SL       C 4024   1.922   3.228   3.448
  269SL       C 4025   1.966   3.225   3.302
  269SL       C 4026   2.007   3.081   3.273
  269SL       C 4027   1.894   2.994   3.323
  269SL       H 4028   1.855   3.311   3.470
  269SL       H 4029   2.008   3.231   3.515
  269SL       H 4030   2.049   3.295   3.284
  269SL       H 4031   1.883   3.254   3.236
  269SL       H 4032   2.100   3.057   3.327
  269SL       H 4033   2.026   3.064   3.166
  269SL       H 4034   1.925   2.892   3.346
  269SL       H 4035   1.810   2.993   3.253
  270SL       O 4036   3.157   1.875   2.556
  270SL       S 4037   3.283   1.813   2.590
  270SL       O 4038   3.382   1.882   2.672
  270SL       C 4039   3.251   1.653   2.661
  270SL       C 4040   3.335   1.556   2.579
  270SL       C 4041   3.331   1.607   2.435
  270SL       C 4042   3.362   1.754   2.442
  270SL       H 4043   3.277   1.652   2.767
  270SL       H 4044   3.144   1.631   2.649
  270SL       H 4045   3.298   1.453   2.587
  270SL       H 4046   3.439   1.557   2.615
  270SL       H 4047   3.229   1.591   2.394
  270SL       H 4048   3.401   1.553   2.371
  270SL       H 4049   3.324   1.810   2.356
  270SL       H 4050   3.470   1.771   2.452
  271SL       O 4051   1.662   1.232   1.067
  271SL       S 4052   1.785   1.251   0.993
  271SL       O 4053   1.860   1.140   0.940
  271SL       C 4054   1.755   1.368   0.862
  271SL       C 4055   1.861   1.476   0.880
  271SL       C 4056   1.878   1.494   1.031
  271SL       C 4057   1.894   1.355   1.089
  271SL       H 4058   1.761   1.319   0.765
  271SL       H 4059   1.655   1.410   0.876
  271SL       H 4060   1.832   1.570   0.832
  271SL       H 4061   1.956   1.443   0.836
  271SL       H 4062   1.788   1.542   1.073
  271SL       H 4063   1.963   1.558   1.056
  271SL       H 4064   1.867   1.349   1.195
  271SL       H 4065   1.996   1.318   1.074
  272SL       O 4066   1.819   2.516   0.793
  272SL       S 4067   1.702   2.432   0.788
  272SL       O 4068   1.641   2.380   0.908
  272SL       C 4069   1.577   2.515   0.691
  272SL       C 4070   1.536   2.413   0.585
  272SL       C 4071   1.664   2.339   0.545
  272SL       C 4072   1.730   2.298   0.674
  272SL       H 4073   1.494   2.545   0.755
  272SL       H 4074   1.623   2.603   0.645
  272SL       H 4075   1.489   2.462   0.499
  272SL       H 4076   1.464   2.342   0.627
  272SL       H 4077   1.729   2.408   0.489
  272SL       H 4078   1.643   2.254   0.481
  272SL       H 4079   1.838   2.281   0.664
  272SL       H 4080   1.682   2.209   0.716
  273SL       O 4081   2.188   1.300   0.581
  273SL       S 4082   2.220   1.246   0.711
  273SL       O 4083   2.292   1.323   0.811
  273SL       C 4084   2.070   1.182   0.784
  273SL       C 4085   2.103   1.038   0.823
  273SL       C 4086   2.193   0.984   0.712
  273SL       C 4087   2.301   1.088   0.691
  273SL       H 4088   2.041   1.243   0.870
  273SL       H 4089   1.991   1.185   0.708
  273SL       H 4090   2.012   0.978   0.834
  273SL       H 4091   2.157   1.036   0.918
  273SL       H 4092   2.134   0.972   0.619
  273SL       H 4093   2.236   0.887   0.737
  273SL       H 4094   2.347   1.083   0.592
  273SL       H 4095   2.378   1.081   0.768
  274SL       O 4096   2.248   0.571   1.670
  274SL       S 4097   2.123   0.568   1.598
  274SL       O 4098   2.080   0.678   1.514
  274SL       C 4099   2.116   0.417   1.503
  274SL       C 4100   1.985   0.351   1.543
  274SL       C 4101   1.967   0.378   1.692
  274SL       C 4102   1.992   0.526   1.711
  274SL       H 4103   2.121   0.439   1.396
  274SL       H 4104   2.201   0.354   1.532
  274SL       H 4105   1.985   0.243   1.521
  274SL       H 4106   1.902   0.396   1.487
  274SL       H 4107   2.042   0.320   1.749
  274SL       H 4108   1.868   0.349   1.728
  274SL       H 4109   2.022   0.552   1.813
  274SL       H 4110   1.904   0.584   1.682
  275SL       O 4111   2.002   2.868   2.036
  275SL       S 4112   2.075   2.969   1.963
  275SL       O 4113   2.100   3.100   2.018
  275SL       C 4114   2.229   2.899   1.907
  275SL       C 4115   2.232   2.924   1.757
  275SL       C 4116   2.089   2.906   1.708
  275SL       C 4117   2.002   2.987   1.801
  275SL       H 4118   2.313   2.946   1.959
  275SL       H 4119   2.228   2.792   1.928
  275SL       H 4120   2.301   2.856   1.706
  275SL       H 4121   2.265   3.027   1.736
  275SL       H 4122   2.061   2.799   1.714
  275SL       H 4123   2.077   2.937   1.604
  275SL       H 4124   1.898   2.953   1.803
  275SL       H 4125   2.005   3.094   1.775
  276SL       O 4126   1.663   0.297   1.529
  276SL       S 4127   1.589   0.367   1.426
  276SL       O 4128   1.444   0.365   1.421
  276SL       C 4129   1.646   0.536   1.421
  276SL       C 4130   1.684   0.560   1.275
  276SL       C 4131   1.748   0.429   1.226
  276SL       C 4132   1.653   0.319   1.267
  276SL       H 4133   1.566   0.603   1.455
  276SL       H 4134   1.733   0.545   1.486
  276SL       H 4135   1.753   0.644   1.265
  276SL       H 4136   1.595   0.582   1.215
  276SL       H 4137   1.846   0.416   1.276
  276SL       H 4138   1.765   0.430   1.118
  276SL       H 4139   1.702   0.221   1.274
  276SL       H 4140   1.568   0.312   1.198
  277SL       O 4141   0.643   3.147   0.656
  277SL       S 4142   0.758   3.200   0.588
  277SL       O 4143   0.805   3.336   0.611
  277SL       C 4144   0.894   3.087   0.611
  277SL       C 4145   0.944   3.058   0.470
  277SL       C 4146   0.820   3.051   0.381
  277SL       C 4147   0.740   3.175   0.413
  277SL       H 4148   0.971   3.133   0.674
  277SL       H 4149   0.856   2.997   0.658
  277SL       H 4150   1.001   2.964   0.466
  277SL       H 4151   1.010   3.138   0.435
  277SL       H 4152   0.762   2.961   0.406
  277SL       H 4153   0.846   3.046   0.275
  277SL       H 4154   0.633   3.164   0.388
  277SL       H 4155   0.781   3.263   0.362
  278SL       O 4156   2.480   2.511   1.323
  278SL       S 4157   2.479   2.654   1.342
  278SL       O 4158   2.529   2.716   1.464
  278SL       C 4159   2.559   2.731   1.202
  278SL       C 4160   2.458   2.834   1.151
  278SL       C 4161   2.320   2.770   1.167
  278SL       C 4162   2.315   2.717   1.309
  278SL       H 4163   2.653   2.777   1.233
  278SL       H 4164   2.577   2.654   1.127
  278SL       H 4165   2.478   2.860   1.047
  278SL       H 4166   2.464   2.925   1.211
  278SL       H 4167   2.310   2.687   1.095
  278SL       H 4168   2.240   2.841   1.148
  278SL       H 4169   2.242   2.636   1.322
  278SL       H 4170   2.295   2.797   1.380
  279SL       O 4171   3.204   4.120   0.632
  279SL       S 4172   3.181   3.982   0.668
  279SL       O 4173   3.180   3.938   0.806
  279SL       C 4174   3.032   3.926   0.587
  279SL       C 4175   3.073   3.800   0.512
  279SL       C 4176   3.214   3.826   0.458
  279SL       C 4177   3.294   3.878   0.576
  279SL       H 4178   2.954   3.908   0.661
  279SL       H 4179   3.000   4.004   0.517
  279SL       H 4180   3.003   3.777   0.431
  279SL       H 4181   3.075   3.714   0.580
  279SL       H 4182   3.209   3.901   0.378
  279SL       H 4183   3.259   3.736   0.416
  279SL       H 4184   3.381   3.937   0.545
  279SL       H 4185   3.325   3.797   0.642
  280SL       O 4186   1.742   0.924   1.365
  280SL       S 4187   1.598   0.925   1.354
  280SL       O 4188   1.513   0.868   1.457
  280SL       C 4189   1.545   1.092   1.321
  280SL       C 4190   1.458   1.082   1.196
  280SL       C 4191   1.525   0.976   1.107
  280SL       C 4192   1.551   0.857   1.196
  280SL       H 4193   1.490   1.132   1.407
  280SL       H 4194   1.634   1.153   1.302
  280SL       H 4195   1.450   1.178   1.145
  280SL       H 4196   1.357   1.049   1.222
  280SL       H 4197   1.620   1.016   1.068
  280SL       H 4198   1.462   0.950   1.021
  280SL       H 4199   1.631   0.792   1.158
  280SL       H 4200   1.460   0.798   1.211
  281SL       O 4201   2.584   1.105   2.841
  281SL       S 4202   2.621   0.980   2.903
  281SL       O 4203   2.538   0.861   2.893
  281SL       C 4204   2.787   0.938   2.854
  281SL       C 4205   2.863   0.915   2.985
  281SL       C 4206   2.808   1.019   3.084
  281SL       C 4207   2.657   1.009   3.075
  281SL       H 4208   2.787   0.850   2.790
  281SL       H 4209   2.829   1.024   2.800
  281SL       H 4210   2.971   0.926   2.971
  281SL       H 4211   2.843   0.814   3.023
  281SL       H 4212   2.842   1.119   3.054
  281SL       H 4213   2.844   1.001   3.186
  281SL       H 4214   2.607   1.101   3.109
  281SL       H 4215   2.620   0.924   3.133
  282SL       O 4216   2.665   0.784   1.048
  282SL       S 4217   2.668   0.649   1.098
  282SL       O 4218   2.772   0.555   1.060
  282SL       C 4219   2.659   0.655   1.276
  282SL       C 4220   2.543   0.564   1.313
  282SL       C 4221   2.437   0.585   1.205
  282SL       C 4222   2.509   0.573   1.073
  282SL       H 4223   2.754   0.622   1.320
  282SL       H 4224   2.639   0.759   1.306
  282SL       H 4225   2.504   0.587   1.413
  282SL       H 4226   2.575   0.459   1.313
  282SL       H 4227   2.393   0.686   1.216
  282SL       H 4228   2.355   0.513   1.213
  282SL       H 4229   2.457   0.624   0.991
  282SL       H 4230   2.526   0.468   1.047
  283SL       O 4231   0.632   1.205   2.248
  283SL       S 4232   0.746   1.166   2.169
  283SL       O 4233   0.881   1.206   2.203
  283SL       C 4234   0.742   0.989   2.147
  283SL       C 4235   0.751   0.967   1.997
  283SL       C 4236   0.669   1.079   1.932
  283SL       C 4237   0.716   1.207   1.998
  283SL       H 4238   0.825   0.943   2.202
  283SL       H 4239   0.647   0.952   2.186
  283SL       H 4240   0.713   0.868   1.968
  283SL       H 4241   0.855   0.974   1.964
  283SL       H 4242   0.562   1.062   1.953
  283SL       H 4243   0.682   1.082   1.824
  283SL       H 4244   0.641   1.287   1.992
  283SL       H 4245   0.810   1.241   1.954
  284SL       O 4246   1.769   1.900   2.053
  284SL       S 4247   1.785   1.998   1.949
  284SL       O 4248   1.801   1.960   1.810
  284SL       C 4249   1.653   2.116   1.961
  284SL       C 4250   1.722   2.252   1.967
  284SL       C 4251   1.848   2.232   2.050
  284SL       C 4252   1.917   2.110   1.993
  284SL       H 4253   1.586   2.107   1.875
  284SL       H 4254   1.598   2.096   2.054
  284SL       H 4255   1.656   2.328   2.011
  284SL       H 4256   1.749   2.285   1.866
  284SL       H 4257   1.820   2.214   2.156
  284SL       H 4258   1.913   2.320   2.048
  284SL       H 4259   1.984   2.061   2.064
  284SL       H 4260   1.972   2.135   1.902
  285SL       O 4261   1.755   3.479   2.147
  285SL       S 4262   1.773   3.365   2.060
  285SL       O 4263   1.767   3.378   1.915
  285SL       C 4264   1.926   3.284   2.104
  285SL       C 4265   1.888   3.138   2.127
  285SL       C 4266   1.750   3.140   2.194
  285SL       C 4267   1.665   3.234   2.111
  285SL       H 4268   1.999   3.296   2.024
  285SL       H 4269   1.963   3.330   2.196
  285SL       H 4270   1.962   3.087   2.189
  285SL       H 4271   1.881   3.085   2.031
  285SL       H 4272   1.761   3.180   2.297
  285SL       H 4273   1.707   3.041   2.201
  285SL       H 4274   1.581   3.275   2.167
  285SL       H 4275   1.628   3.183   2.021
  286SL       O 4276   2.402   3.054   2.824
  286SL       S 4277   2.387   2.960   2.933
  286SL       O 4278   2.404   3.000   3.071
  286SL       C 4279   2.230   2.877   2.915
  286SL       C 4280   2.263   2.728   2.919
  286SL       C 4281   2.396   2.713   2.844
  286SL       C 4282   2.489   2.817   2.902
  286SL       H 4283   2.162   2.907   2.996
  286SL       H 4284   2.187   2.905   2.819
  286SL       H 4285   2.184   2.669   2.873
  286SL       H 4286   2.275   2.695   3.023
  286SL       H 4287   2.379   2.732   2.737
  286SL       H 4288   2.437   2.612   2.854
  286SL       H 4289   2.570   2.844   2.834
  286SL       H 4290   2.530   2.784   2.998
  287SL       O 4291   3.510   2.218   2.219
  287SL       S 4292   3.436   2.139   2.315
  287SL       O 4293   3.381   2.009   2.282
  287SL       C 4294   3.534   2.124   2.463
  287SL       C 4295   3.443   2.172   2.576
  287SL       C 4296   3.362   2.289   2.519
  287SL       C 4297   3.308   2.240   2.386
  287SL       H 4298   3.567   2.021   2.477
  287SL       H 4299   3.621   2.190   2.453
  287SL       H 4300   3.501   2.203   2.664
  287SL       H 4301   3.375   2.092   2.606
  287SL       H 4302   3.429   2.375   2.503
  287SL       H 4303   3.283   2.320   2.586
  287SL       H 4304   3.283   2.322   2.318
  287SL       H 4305   3.220   2.176   2.401
  288SL       O 4306   2.738   1.052   0.473
  288SL       S 4307   2.806   1.131   0.374
  288SL       O 4308   2.942   1.103   0.333
  288SL       C 4309   2.703   1.140   0.228
  288SL       C 4310   2.688   1.289   0.198
  288SL       C 4311   2.679   1.358   0.334
  288SL       C 4312   2.793   1.304   0.417
  288SL       H 4313   2.749   1.085   0.146
  288SL       H 4314   2.606   1.095   0.253
  288SL       H 4315   2.600   1.309   0.136
  288SL       H 4316   2.777   1.325   0.144
  288SL       H 4317   2.582   1.333   0.381
  288SL       H 4318   2.684   1.467   0.325
  288SL       H 4319   2.776   1.313   0.525
  288SL       H 4320   2.887   1.352   0.390
  289SL       O 4321   2.232   0.142   2.610
  289SL       S 4322   2.292   0.170   2.737
  289SL       O 4323   2.410   0.100   2.784
  289SL       C 4324   2.322   0.346   2.748
  289SL       C 4325   2.255   0.389   2.879
  289SL       C 4326   2.127   0.306   2.890
  289SL       C 4327   2.168   0.162   2.865
  289SL       H 4328   2.429   0.366   2.748
  289SL       H 4329   2.274   0.394   2.663
  289SL       H 4330   2.233   0.496   2.879
  289SL       H 4331   2.320   0.367   2.964
  289SL       H 4332   2.055   0.339   2.814
  289SL       H 4333   2.079   0.318   2.988
  289SL       H 4334   2.084   0.100   2.831
  289SL       H 4335   2.213   0.118   2.954
  290SL       O 4336   0.272   2.928   1.480
  290SL       S 4337   0.404   2.977   1.451
  290SL       O 4338   0.446   3.112   1.485
  290SL       C 4339   0.523   2.861   1.516
  290SL       C 4340   0.614   2.827   1.398
  290SL       C 4341   0.523   2.821   1.275
  290SL       C 4342   0.440   2.948   1.278
  290SL       H 4343   0.578   2.906   1.599
  290SL       H 4344   0.469   2.773   1.550
  290SL       H 4345   0.666   2.732   1.414
  290SL       H 4346   0.689   2.905   1.384
  290SL       H 4347   0.457   2.733   1.282
  290SL       H 4348   0.580   2.813   1.182
  290SL       H 4349   0.346   2.939   1.222
  290SL       H 4350   0.498   3.033   1.242
  291SL       O 4351   3.818   2.776   2.568
  291SL       S 4352   3.846   2.658   2.646
  291SL       O 4353   3.941   2.658   2.756
  291SL       C 4354   3.691   2.591   2.705
  291SL       C 4355   3.692   2.445   2.660
  291SL       C 4356   3.758   2.443   2.522
  291SL       C 4357   3.886   2.523   2.536
  291SL       H 4358   3.684   2.601   2.813
  291SL       H 4359   3.610   2.646   2.656
  291SL       H 4360   3.590   2.404   2.656
  291SL       H 4361   3.750   2.384   2.730
  291SL       H 4362   3.691   2.490   2.449
  291SL       H 4363   3.778   2.341   2.488
  291SL       H 4364   3.922   2.563   2.441
  291SL       H 4365   3.964   2.464   2.584
  292SL       O 4366   0.349   0.314   1.928
  292SL       S 4367   0.407   0.322   1.796
  292SL       O 4368   0.325   0.342   1.678
  292SL       C 4369   0.536   0.445   1.798
  292SL       C 4370   0.659   0.373   1.742
  292SL       C 4371   0.653   0.230   1.797
  292SL       C 4372   0.513   0.181   1.769
  292SL       H 4373   0.507   0.531   1.738
  292SL       H 4374   0.552   0.475   1.902
  292SL       H 4375   0.751   0.424   1.772
  292SL       H 4376   0.655   0.371   1.633
  292SL       H 4377   0.673   0.232   1.905
  292SL       H 4378   0.728   0.166   1.750
  292SL       H 4379   0.483   0.099   1.836
  292SL       H 4380   0.502   0.150   1.665
  293SL       O 4381   0.838   3.777   1.576
  293SL       S 4382   0.908   3.750   1.700
  293SL       O 4383   0.855   3.793   1.828
  293SL       C 4384   0.943   3.575   1.708
  293SL       C 4385   1.093   3.567   1.733
  293SL       C 4386   1.157   3.680   1.653
  293SL       C 4387   1.077   3.804   1.686
  293SL       H 4388   0.884   3.528   1.787
  293SL       H 4389   0.918   3.531   1.611
  293SL       H 4390   1.134   3.469   1.704
  293SL       H 4391   1.114   3.581   1.840
  293SL       H 4392   1.149   3.657   1.545
  293SL       H 4393   1.263   3.693   1.677
  293SL       H 4394   1.084   3.881   1.609
  293SL       H 4395   1.107   3.846   1.783
  294SL       O 4396   0.981   0.590   1.503
  294SL       S 4397   1.096   0.503   1.505
  294SL       O 4398   1.169   0.476   1.628
  294SL       C 4399   1.051   0.348   1.430
  294SL       C 4400   1.157   0.325   1.322
  294SL       C 4401   1.187   0.462   1.262
  294SL       C 4402   1.211   0.554   1.380
  294SL       H 4403   1.050   0.268   1.505
  294SL       H 4404   0.952   0.359   1.386
  294SL       H 4405   1.121   0.255   1.246
  294SL       H 4406   1.248   0.283   1.366
  294SL       H 4407   1.100   0.497   1.204
  294SL       H 4408   1.272   0.460   1.194
  294SL       H 4409   1.195   0.660   1.355
  294SL       H 4410   1.312   0.541   1.419
  295SL       O 4411   0.518   3.639   0.702
  295SL       S 4412   0.627   3.548   0.678
  295SL       O 4413   0.632   3.462   0.561
  295SL       C 4414   0.781   3.638   0.691
  295SL       C 4415   0.864   3.560   0.792
  295SL       C 4416   0.766   3.511   0.899
  295SL       C 4417   0.651   3.447   0.824
  295SL       H 4418   0.829   3.644   0.593
  295SL       H 4419   0.758   3.738   0.727
  295SL       H 4420   0.942   3.623   0.836
  295SL       H 4421   0.912   3.475   0.744
  295SL       H 4422   0.730   3.597   0.957
  295SL       H 4423   0.813   3.441   0.968
  295SL       H 4424   0.559   3.444   0.882
  295SL       H 4425   0.678   3.346   0.790
  296SL       O 4426   0.820   1.279   3.487
  296SL       S 4427   0.964   1.272   3.475
  296SL       O 4428   1.046   1.391   3.465
  296SL       C 4429   1.026   1.170   3.607
  296SL       C 4430   1.111   1.063   3.538
  296SL       C 4431   1.039   1.029   3.408
  296SL       C 4432   1.007   1.161   3.342
  296SL       H 4433   1.084   1.230   3.678
  296SL       H 4434   0.941   1.124   3.658
  296SL       H 4435   1.125   0.975   3.602
  296SL       H 4436   1.211   1.104   3.516
  296SL       H 4437   0.946   0.974   3.432
  296SL       H 4438   1.100   0.965   3.343
  296SL       H 4439   0.923   1.154   3.272
  296SL       H 4440   1.094   1.202   3.291
  297SL       O 4441   0.939   3.621   3.009
  297SL       S 4442   0.950   3.483   3.048
  297SL       O 4443   0.933   3.375   2.953
  297SL       C 4444   1.105   3.460   3.133
  297SL       C 4445   1.068   3.396   3.266
  297SL       C 4446   0.936   3.460   3.310
  297SL       C 4447   0.845   3.454   3.189
  297SL       H 4448   1.172   3.398   3.074
  297SL       H 4449   1.150   3.559   3.149
  297SL       H 4450   1.146   3.410   3.341
  297SL       H 4451   1.053   3.288   3.253
  297SL       H 4452   0.955   3.565   3.338
  297SL       H 4453   0.892   3.410   3.396
  297SL       H 4454   0.766   3.529   3.192
  297SL       H 4455   0.801   3.354   3.178
  298SL       O 4456   0.104   2.567   1.928
  298SL       S 4457   0.183   2.489   1.836
  298SL       O 4458   0.159   2.492   1.693
  298SL       C 4459   0.356   2.524   1.866
  298SL       C 4460   0.420   2.387   1.887
  298SL       C 4461   0.318   2.303   1.964
  298SL       C 4462   0.187   2.320   1.890
  298SL       H 4463   0.399   2.578   1.781
  298SL       H 4464   0.363   2.585   1.957
  298SL       H 4465   0.515   2.396   1.942
  298SL       H 4466   0.441   2.340   1.790
  298SL       H 4467   0.309   2.342   2.067
  298SL       H 4468   0.348   2.199   1.971
  298SL       H 4469   0.100   2.299   1.953
  298SL       H 4470   0.184   2.256   1.801
  299SL       O 4471   0.939   3.653   1.426
  299SL       S 4472   0.973   3.702   1.294
  299SL       O 4473   0.893   3.671   1.178
  299SL       C 4474   0.997   3.878   1.304
  299SL       C 4475   1.135   3.903   1.244
  299SL       C 4476   1.222   3.786   1.289
  299SL       C 4477   1.143   3.661   1.259
  299SL       H 4478   0.917   3.930   1.249
  299SL       H 4479   0.994   3.907   1.409
  299SL       H 4480   1.176   3.999   1.277
  299SL       H 4481   1.129   3.904   1.135
  299SL       H 4482   1.241   3.794   1.397
  299SL       H 4483   1.319   3.786   1.239
  299SL       H 4484   1.174   3.575   1.320
  299SL       H 4485   1.150   3.635   1.153
  300SL       O 4486   2.116   1.550   3.281
  300SL       S 4487   2.091   1.676   3.345
  300SL       O 4488   2.032   1.684   3.477
  300SL       C 4489   2.241   1.772   3.343
  300SL       C 4490   2.202   1.905   3.280
  300SL       C 4491   2.101   1.873   3.171
  300SL       C 4492   1.999   1.781   3.235
  300SL       H 4493   2.280   1.783   3.445
  300SL       H 4494   2.314   1.719   3.281
  300SL       H 4495   2.290   1.958   3.240
  300SL       H 4496   2.156   1.970   3.356
  300SL       H 4497   2.152   1.821   3.088
  300SL       H 4498   2.055   1.963   3.130
  300SL       H 4499   1.945   1.720   3.162
  300SL       H 4500   1.927   1.838   3.295
  301SL       O 4501   0.521   1.710   3.374
  301SL       S 4502   0.432   1.690   3.262
  301SL       O 4503   0.482   1.666   3.128
  301SL       C 4504   0.316   1.562   3.304
  301SL       C 4505   0.178   1.623   3.278
  301SL       C 4506   0.188   1.769   3.321
  301SL       C 4507   0.314   1.823   3.256
  301SL       H 4508   0.334   1.473   3.243
  301SL       H 4509   0.328   1.537   3.409
  301SL       H 4510   0.100   1.570   3.333
  301SL       H 4511   0.154   1.617   3.171
  301SL       H 4512   0.197   1.774   3.431
  301SL       H 4513   0.100   1.826   3.292
  301SL       H 4514   0.354   1.911   3.308
  301SL       H 4515   0.296   1.848   3.151
  302SL       O 4516   3.319   1.726   0.914
  302SL       S 4517   3.234   1.610   0.894
  302SL       O 4518   3.177   1.537   1.006
  302SL       C 4519   3.104   1.654   0.781
  302SL       C 4520   3.110   1.548   0.671
  302SL       C 4521   3.258   1.519   0.649
  302SL       C 4522   3.317   1.495   0.786
  302SL       H 4523   3.007   1.655   0.833
  302SL       H 4524   3.125   1.753   0.741
  302SL       H 4525   3.062   1.584   0.579
  302SL       H 4526   3.058   1.457   0.703
  302SL       H 4527   3.306   1.606   0.602
  302SL       H 4528   3.273   1.433   0.583
  302SL       H 4529   3.425   1.512   0.790
  302SL       H 4530   3.294   1.394   0.822
  303SL       O 4531   0.307   1.433   2.770
  303SL       S 4532   0.422   1.365   2.826
  303SL       O 4533   0.438   1.348   2.969
  303SL       C 4534   0.440   1.207   2.745
  303SL       C 4535   0.583   1.205   2.694
  303SL       C 4536   0.614   1.347   2.647
  303SL       C 4537   0.570   1.439   2.759
  303SL       H 4538   0.419   1.127   2.816
  303SL       H 4539   0.369   1.203   2.662
  303SL       H 4540   0.596   1.132   2.613
  303SL       H 4541   0.652   1.178   2.775
  303SL       H 4542   0.556   1.369   2.556
  303SL       H 4543   0.720   1.361   2.623
  303SL       H 4544   0.549   1.541   2.726
  303SL       H 4545   0.645   1.441   2.839
  304SL       O 4546   2.302   1.537   2.206
  304SL       S 4547   2.279   1.397   2.179
  304SL       O 4548   2.256   1.347   2.044
  304SL       C 4549   2.410   1.303   2.254
  304SL       C 4550   2.340   1.199   2.341
  304SL       C 4551   2.218   1.269   2.400
  304SL       C 4552   2.148   1.337   2.285
  304SL       H 4553   2.473   1.257   2.177
  304SL       H 4554   2.470   1.370   2.315
  304SL       H 4555   2.406   1.160   2.418
  304SL       H 4556   2.307   1.114   2.279
  304SL       H 4557   2.252   1.344   2.474
  304SL       H 4558   2.152   1.199   2.452
  304SL       H 4559   2.086   1.421   2.316
  304SL       H 4560   2.089   1.266   2.227
  305SL       O 4561   1.922   3.400   2.822
  305SL       S 4562   1.802   3.332   2.865
  305SL       O 4563   1.801   3.246   2.981
  305SL       C 4564   1.672   3.453   2.882
  305SL       C 4565   1.557   3.399   2.798
  305SL       C 4566   1.621   3.335   2.675
  305SL       C 4567   1.731   3.245   2.727
  305SL       H 4568   1.645   3.465   2.987
  305SL       H 4569   1.709   3.548   2.841
  305SL       H 4570   1.487   3.479   2.770
  305SL       H 4571   1.501   3.324   2.854
  305SL       H 4572   1.663   3.413   2.610
  305SL       H 4573   1.548   3.279   2.615
  305SL       H 4574   1.808   3.225   2.653
  305SL       H 4575   1.690   3.151   2.765
  306SL       O 4576   1.647   0.769   3.040
  306SL       S 4577   1.656   0.631   3.082
  306SL       O 4578   1.554   0.568   3.164
  306SL       C 4579   1.684   0.530   2.938
  306SL       C 4580   1.809   0.448   2.971
  306SL       C 4581   1.901   0.541   3.050
  306SL       C 4582   1.815   0.603   3.157
  306SL       H 4583   1.597   0.467   2.918
  306SL       H 4584   1.703   0.596   2.853
  306SL       H 4585   1.858   0.410   2.880
  306SL       H 4586   1.782   0.361   3.033
  306SL       H 4587   1.940   0.619   2.982
  306SL       H 4588   1.987   0.488   3.092
  306SL       H 4589   1.855   0.698   3.194
  306SL       H 4590   1.801   0.534   3.241
  307SL       O 4591   3.867   2.316   3.062
  307SL       S 4592   3.990   2.390   3.077
  307SL       O 4593   4.120   2.328   3.061
  307SL       C 4594   3.982   2.535   2.973
  307SL       C 4595   4.012   2.652   3.065
  307SL       C 4596   3.945   2.619   3.199
  307SL       C 4597   3.987   2.478   3.232
  307SL       H 4598   4.054   2.526   2.891
  307SL       H 4599   3.880   2.542   2.933
  307SL       H 4600   3.974   2.746   3.024
  307SL       H 4601   4.120   2.662   3.080
  307SL       H 4602   3.836   2.624   3.187
  307SL       H 4603   3.974   2.689   3.278
  307SL       H 4604   3.918   2.428   3.301
  307SL       H 4605   4.089   2.475   3.274
  308SL       O 4606   1.754   3.681   2.407
  308SL       S 4607   1.833   3.765   2.495
  308SL       O 4608   1.948   3.713   2.566
  308SL       C 4609   1.881   3.911   2.405
  308SL       C 4610   1.836   4.028   2.493
  308SL       C 4611   1.702   3.985   2.555
  308SL       C 4612   1.725   3.846   2.611
  308SL       H 4613   1.989   3.911   2.388
  308SL       H 4614   1.828   3.912   2.310
  308SL       H 4615   1.825   4.120   2.435
  308SL       H 4616   1.909   4.046   2.572
  308SL       H 4617   1.625   3.982   2.476
  308SL       H 4618   1.669   4.055   2.631
  308SL       H 4619   1.632   3.789   2.621
  308SL       H 4620   1.777   3.851   2.707
  309SL       O 4621   1.173   3.698   0.765
  309SL       S 4622   1.207   3.593   0.857
  309SL       O 4623   1.110   3.538   0.950
  309SL       C 4624   1.281   3.459   0.766
  309SL       C 4625   1.414   3.432   0.836
  309SL       C 4626   1.468   3.569   0.878
  309SL       C 4627   1.353   3.639   0.948
  309SL       H 4628   1.215   3.372   0.766
  309SL       H 4629   1.297   3.493   0.663
  309SL       H 4630   1.484   3.380   0.770
  309SL       H 4631   1.398   3.370   0.924
  309SL       H 4632   1.498   3.625   0.788
  309SL       H 4633   1.555   3.560   0.943
  309SL       H 4634   1.364   3.748   0.947
  309SL       H 4635   1.342   3.603   1.050
  310SL       O 4636   1.756   0.283   2.624
  310SL       S 4637   1.773   0.347   2.496
  310SL       O 4638   1.827   0.277   2.381
  310SL       C 4639   1.618   0.423   2.449
  310SL       C 4640   1.653   0.569   2.419
  310SL       C 4641   1.759   0.609   2.521
  310SL       C 4642   1.863   0.499   2.518
  310SL       H 4643   1.575   0.371   2.363
  310SL       H 4644   1.550   0.416   2.534
  310SL       H 4645   1.564   0.633   2.425
  310SL       H 4646   1.694   0.577   2.318
  310SL       H 4647   1.713   0.615   2.621
  310SL       H 4648   1.803   0.707   2.498
  310SL       H 4649   1.922   0.494   2.610
  310SL       H 4650   1.930   0.511   2.432
  311SL       O 4651   3.203   3.534   0.522
  311SL       S 4652   3.153   3.457   0.633
  311SL       O 4653   3.071   3.517   0.738
  311SL       C 4654   3.069   3.313   0.570
  311SL       C 4655   3.134   3.195   0.641
  311SL       C 4656   3.282   3.229   0.653
  311SL       C 4657   3.288   3.369   0.709
  311SL       H 4658   2.962   3.320   0.589
  311SL       H 4659   3.087   3.308   0.462
  311SL       H 4660   3.118   3.101   0.586
  311SL       H 4661   3.090   3.183   0.741
  311SL       H 4662   3.329   3.226   0.553
  311SL       H 4663   3.335   3.158   0.717
  311SL       H 4664   3.382   3.420   0.687
  311SL       H 4665   3.271   3.369   0.817
  312SL       O 4666   2.877   3.379   3.586
  312SL       S 4667   2.907   3.519   3.601
  312SL       O 4668   2.967   3.573   3.721
  312SL       C 4669   3.003   3.571   3.460
  312SL       C 4670   2.929   3.692   3.403
  312SL       C 4671   2.780   3.661   3.418
  312SL       C 4672   2.761   3.615   3.561
  312SL       H 4673   3.105   3.596   3.491
  312SL       H 4674   3.006   3.489   3.388
  312SL       H 4675   2.956   3.710   3.299
  312SL       H 4676   2.954   3.782   3.460
  312SL       H 4677   2.753   3.580   3.349
  312SL       H 4678   2.717   3.747   3.395
  312SL       H 4679   2.672   3.553   3.575
  312SL       H 4680   2.758   3.700   3.630
  313SL       O 4681   1.156   1.610   1.306
  313SL       S 4682   1.056   1.644   1.405
  313SL       O 4683   1.080   1.631   1.547
  313SL       C 4684   0.999   1.810   1.371
  313SL       C 4685   0.847   1.798   1.361
  313SL       C 4686   0.819   1.664   1.292
  313SL       C 4687   0.903   1.561   1.364
  313SL       H 4688   1.030   1.877   1.451
  313SL       H 4689   1.041   1.842   1.276
  313SL       H 4690   0.804   1.882   1.306
  313SL       H 4691   0.802   1.797   1.461
  313SL       H 4692   0.850   1.671   1.186
  313SL       H 4693   0.713   1.638   1.293
  313SL       H 4694   0.925   1.473   1.303
  313SL       H 4695   0.856   1.531   1.458
  314SL       O 4696   3.491   3.282   3.947
  314SL       S 4697   3.468   3.405   3.875
  314SL       O 4698   3.574   3.503   3.855
  314SL       C 4699   3.395   3.366   3.717
  314SL       C 4700   3.268   3.451   3.711
  314SL       C 4701   3.210   3.452   3.852
  314SL       C 4702   3.326   3.487   3.944
  314SL       H 4703   3.465   3.389   3.637
  314SL       H 4704   3.370   3.260   3.717
  314SL       H 4705   3.197   3.410   3.639
  314SL       H 4706   3.293   3.553   3.680
  314SL       H 4707   3.172   3.352   3.877
  314SL       H 4708   3.128   3.523   3.862
  314SL       H 4709   3.310   3.454   4.047
  314SL       H 4710   3.346   3.595   3.943
  315SL       O 4711   1.974   2.342   0.436
  315SL       S 4712   2.026   2.470   0.394
  315SL       O 4713   2.030   2.510   0.255
  315SL       C 4714   1.944   2.597   0.488
  315SL       C 4715   2.057   2.679   0.550
  315SL       C 4716   2.166   2.580   0.587
  315SL       C 4717   2.188   2.494   0.465
  315SL       H 4718   1.879   2.656   0.423
  315SL       H 4719   1.884   2.549   0.566
  315SL       H 4720   2.022   2.736   0.637
  315SL       H 4721   2.095   2.751   0.477
  315SL       H 4722   2.132   2.518   0.672
  315SL       H 4723   2.258   2.630   0.618
  315SL       H 4724   2.232   2.396   0.488
  315SL       H 4725   2.249   2.545   0.391
  316SL       O 4726   0.614   0.379   0.638
  316SL       S 4727   0.713   0.467   0.581
  316SL       O 4728   0.821   0.416   0.498
  316SL       C 4729   0.630   0.599   0.495
  316SL       C 4730   0.690   0.727   0.553
  316SL       C 4731   0.712   0.700   0.702
  316SL       C 4732   0.784   0.567   0.711
  316SL       H 4733   0.647   0.590   0.388
  316SL       H 4734   0.524   0.592   0.518
  316SL       H 4735   0.624   0.813   0.537
  316SL       H 4736   0.786   0.749   0.505
  316SL       H 4737   0.614   0.694   0.753
  316SL       H 4738   0.768   0.780   0.750
  316SL       H 4739   0.771   0.518   0.807
  316SL       H 4740   0.890   0.579   0.689
  317SL       O 4741   1.529   2.815   2.195
  317SL       S 4742   1.460   2.739   2.094
  317SL       O 4743   1.440   2.790   1.960
  317SL       C 4744   1.535   2.577   2.083
  317SL       C 4745   1.419   2.479   2.100
  317SL       C 4746   1.325   2.541   2.203
  317SL       C 4747   1.303   2.684   2.159
  317SL       H 4748   1.586   2.566   1.988
  317SL       H 4749   1.606   2.568   2.166
  317SL       H 4750   1.455   2.381   2.132
  317SL       H 4751   1.366   2.467   2.005
  317SL       H 4752   1.373   2.539   2.302
  317SL       H 4753   1.231   2.486   2.211
  317SL       H 4754   1.272   2.750   2.241
  317SL       H 4755   1.230   2.689   2.078
  318SL       O 4756   1.868   0.975   3.826
  318SL       S 4757   1.794   0.859   3.869
  318SL       O 4758   1.667   0.870   3.939
  318SL       C 4759   1.774   0.750   3.730
  318SL       C 4760   1.827   0.615   3.777
  318SL       C 4761   1.947   0.645   3.866
  318SL       C 4762   1.902   0.752   3.963
  318SL       H 4763   1.669   0.746   3.700
  318SL       H 4764   1.834   0.789   3.647
  318SL       H 4765   1.854   0.551   3.693
  318SL       H 4766   1.750   0.563   3.836
  318SL       H 4767   2.030   0.684   3.803
  318SL       H 4768   1.984   0.557   3.918
  318SL       H 4769   1.985   0.811   4.004
  318SL       H 4770   1.843   0.709   4.045
  319SL       O 4771   3.232   3.103   2.629
  319SL       S 4772   3.262   2.985   2.706
  319SL       O 4773   3.347   2.991   2.824
  319SL       C 4774   3.110   2.904   2.749
  319SL       C 4775   3.127   2.760   2.702
  319SL       C 4776   3.205   2.768   2.571
  319SL       C 4777   3.323   2.858   2.598
  319SL       H 4778   3.092   2.911   2.857
  319SL       H 4779   3.028   2.954   2.695
  319SL       H 4780   3.030   2.711   2.689
  319SL       H 4781   3.184   2.703   2.776
  319SL       H 4782   3.140   2.811   2.493
  319SL       H 4783   3.236   2.669   2.536
  319SL       H 4784   3.363   2.903   2.507
  319SL       H 4785   3.402   2.804   2.650
  320SL       O 4786   2.738   1.713   3.826
  320SL       S 4787   2.772   1.607   3.918
  320SL       O 4788   2.697   1.584   4.039
  320SL       C 4789   2.784   1.455   3.826
  320SL       C 4790   2.922   1.398   3.861
  320SL       C 4791   3.016   1.519   3.871
  320SL       C 4792   2.945   1.619   3.959
  320SL       H 4793   2.703   1.387   3.855
  320SL       H 4794   2.778   1.478   3.720
  320SL       H 4795   2.956   1.327   3.786
  320SL       H 4796   2.918   1.347   3.958
  320SL       H 4797   3.031   1.561   3.770
  320SL       H 4798   3.114   1.491   3.911
  320SL       H 4799   2.980   1.722   3.943
  320SL       H 4800   2.956   1.593   4.065
  321SL       O 4801   2.538   2.425   1.820
  321SL       S 4802   2.403   2.378   1.798
  321SL       O 4803   2.365   2.240   1.819
  321SL       C 4804   2.291   2.483   1.889
  321SL       C 4805   2.189   2.531   1.786
  321SL       C 4806   2.267   2.554   1.657
  321SL       C 4807   2.350   2.429   1.636
  321SL       H 4808   2.245   2.427   1.971
  321SL       H 4809   2.348   2.567   1.929
  321SL       H 4810   2.139   2.622   1.820
  321SL       H 4811   2.112   2.454   1.771
  321SL       H 4812   2.332   2.641   1.669
  321SL       H 4813   2.201   2.573   1.572
  321SL       H 4814   2.437   2.446   1.572
  321SL       H 4815   2.289   2.348   1.594
  322SL       O 4816   3.607   2.153   1.088
  322SL       S 4817   3.700   2.063   1.025
  322SL       O 4818   3.837   2.103   0.996
  322SL       C 4819   3.702   1.909   1.115
  322SL       C 4820   3.676   1.801   1.011
  322SL       C 4821   3.574   1.861   0.913
  322SL       C 4822   3.627   1.997   0.876
  322SL       H 4823   3.799   1.896   1.166
  322SL       H 4824   3.622   1.913   1.189
  322SL       H 4825   3.638   1.709   1.057
  322SL       H 4826   3.768   1.777   0.957
  322SL       H 4827   3.477   1.870   0.964
  322SL       H 4828   3.560   1.798   0.826
  322SL       H 4829   3.549   2.065   0.841
  322SL       H 4830   3.706   1.990   0.801
  323SL       O 4831   0.166   2.332   3.647
  323SL       S 4832   0.185   2.405   3.769
  323SL       O 4833   0.100   2.517   3.805
  323SL       C 4834   0.189   2.289   3.905
  323SL       C 4835   0.318   2.320   3.979
  323SL       C 4836   0.422   2.354   3.872
  323SL       C 4837   0.355   2.456   3.782
  323SL       H 4838   0.100   2.302   3.968
  323SL       H 4839   0.190   2.188   3.863
  323SL       H 4840   0.350   2.235   4.040
  323SL       H 4841   0.304   2.406   4.046
  323SL       H 4842   0.447   2.263   3.815
  323SL       H 4843   0.514   2.393   3.915
  323SL       H 4844   0.400   2.459   3.682
  323SL       H 4845   0.357   2.556   3.826
  324SL       O 4846   0.270   2.246   1.230
  324SL       S 4847   0.241   2.314   1.354
  324SL       O 4848   0.108   2.318   1.410
  324SL       C 4849   0.355   2.256   1.478
  324SL       C 4850   0.419   2.383   1.535
  324SL       C 4851   0.437   2.478   1.417
  324SL       C 4852   0.304   2.481   1.345
  324SL       H 4853   0.302   2.199   1.554
  324SL       H 4854   0.430   2.193   1.429
  324SL       H 4855   0.515   2.360   1.584
  324SL       H 4856   0.353   2.428   1.609
  324SL       H 4857   0.516   2.438   1.350
  324SL       H 4858   0.468   2.578   1.449
  324SL       H 4859   0.313   2.511   1.240
  324SL       H 4860   0.233   2.546   1.396
  325SL       O 4861   3.910   3.102   2.084
  325SL       S 4862   3.992   3.036   1.985
  325SL       O 4863   4.119   3.091   1.943
  325SL       C 4864   4.016   2.866   2.035
  325SL       C 4865   3.973   2.784   1.914
  325SL       C 4866   3.853   2.856   1.853
  325SL       C 4867   3.894   3.002   1.841
  325SL       H 4868   4.120   2.849   2.062
  325SL       H 4869   3.951   2.846   2.120
  325SL       H 4870   3.947   2.681   1.942
  325SL       H 4871   4.054   2.779   1.840
  325SL       H 4872   3.766   2.847   1.921
  325SL       H 4873   3.824   2.814   1.757
  325SL       H 4874   3.808   3.070   1.837
  325SL       H 4875   3.957   3.017   1.753
  326SL       O 4876   3.329   1.122   1.287
  326SL       S 4877   3.278   1.056   1.169
  326SL       O 4878   3.235   0.918   1.171
  326SL       C 4879   3.149   1.157   1.100
  326SL       C 4880   3.189   1.179   0.954
  326SL       C 4881   3.341   1.194   0.954
  326SL       C 4882   3.395   1.079   1.036
  326SL       H 4883   3.052   1.107   1.110
  326SL       H 4884   3.147   1.252   1.154
  326SL       H 4885   3.139   1.267   0.912
  326SL       H 4886   3.160   1.092   0.894
  326SL       H 4887   3.368   1.290   1.001
  326SL       H 4888   3.382   1.194   0.853
  326SL       H 4889   3.494   1.098   1.077
  326SL       H 4890   3.396   0.986   0.977
  327SL       O 4891   3.500   2.856   0.491
  327SL       S 4892   3.582   2.883   0.607
  327SL       O 4893   3.548   2.830   0.738
  327SL       C 4894   3.750   2.841   0.569
  327SL       C 4895   3.831   2.966   0.602
  327SL       C 4896   3.744   3.085   0.562
  327SL       C 4897   3.607   3.059   0.621
  327SL       H 4898   3.782   2.754   0.627
  327SL       H 4899   3.757   2.819   0.462
  327SL       H 4900   3.927   2.967   0.550
  327SL       H 4901   3.851   2.971   0.710
  327SL       H 4902   3.737   3.089   0.452
  327SL       H 4903   3.785   3.180   0.596
  327SL       H 4904   3.527   3.112   0.569
  327SL       H 4905   3.606   3.085   0.728
  328SL       O 4906   0.521   2.317   3.125
  328SL       S 4907   0.652   2.354   3.076
  328SL       O 4908   0.683   2.489   3.033
  328SL       C 4909   0.774   2.302   3.195
  328SL       C 4910   0.873   2.217   3.115
  328SL       C 4911   0.791   2.139   3.013
  328SL       C 4912   0.700   2.241   2.947
  328SL       H 4913   0.821   2.389   3.241
  328SL       H 4914   0.724   2.241   3.270
  328SL       H 4915   0.930   2.151   3.180
  328SL       H 4916   0.945   2.283   3.063
  328SL       H 4917   0.731   2.063   3.065
  328SL       H 4918   0.853   2.088   2.940
  328SL       H 4919   0.610   2.196   2.902
  328SL       H 4920   0.754   2.298   2.870
  329SL       O 4921   1.037   3.797   2.446
  329SL       S 4922   1.162   3.821   2.514
  329SL       O 4923   1.173   3.813   2.658
  329SL       C 4924   1.287   3.718   2.440
  329SL       C 4925   1.400   3.814   2.402
  329SL       C 4926   1.332   3.942   2.354
  329SL       C 4927   1.229   3.977   2.459
  329SL       H 4928   1.320   3.641   2.510
  329SL       H 4929   1.245   3.671   2.350
  329SL       H 4930   1.465   3.771   2.325
  329SL       H 4931   1.462   3.835   2.490
  329SL       H 4932   1.283   3.923   2.257
  329SL       H 4933   1.404   4.023   2.340
  329SL       H 4934   1.149   4.040   2.421
  329SL       H 4935   1.276   4.025   2.546
  330SL       O 4936   0.766   0.920   1.701
  330SL       S 4937   0.811   0.992   1.584
  330SL       O 4938   0.865   0.924   1.468
  330SL       C 4939   0.682   1.103   1.532
  330SL       C 4940   0.748   1.240   1.524
  330SL       C 4941   0.846   1.246   1.641
  330SL       C 4942   0.926   1.118   1.635
  330SL       H 4943   0.641   1.070   1.436
  330SL       H 4944   0.603   1.102   1.608
  330SL       H 4945   0.674   1.320   1.529
  330SL       H 4946   0.802   1.250   1.429
  330SL       H 4947   0.790   1.252   1.736
  330SL       H 4948   0.911   1.334   1.635
  330SL       H 4949   0.971   1.091   1.731
  330SL       H 4950   1.005   1.124   1.559
  331SL       O 4951   3.662   3.499   3.069
  331SL       S 4952   3.615   3.417   3.178
  331SL       O 4953   3.700   3.319   3.243
  331SL       C 4954   3.544   3.524   3.302
  331SL       C 4955   3.404   3.469   3.326
  331SL       C 4956   3.352   3.423   3.190
  331SL       C 4957   3.462   3.338   3.130
  331SL       H 4958   3.606   3.523   3.392
  331SL       H 4959   3.540   3.625   3.261
  331SL       H 4960   3.339   3.544   3.371
  331SL       H 4961   3.409   3.383   3.395
  331SL       H 4962   3.333   3.511   3.127
  331SL       H 4963   3.259   3.367   3.199
  331SL       H 4964   3.457   3.333   3.021
  331SL       H 4965   3.462   3.238   3.172
  332SL       O 4966   1.732   2.437   1.453
  332SL       S 4967   1.751   2.356   1.572
  332SL       O 4968   1.654   2.353   1.679
  332SL       C 4969   1.787   2.189   1.521
  332SL       C 4970   1.917   2.153   1.592
  332SL       C 4971   2.002   2.280   1.590
  332SL       C 4972   1.912   2.391   1.640
  332SL       H 4973   1.704   2.123   1.549
  332SL       H 4974   1.800   2.188   1.412
  332SL       H 4975   1.968   2.070   1.542
  332SL       H 4976   1.897   2.123   1.695
  332SL       H 4977   2.035   2.301   1.487
  332SL       H 4978   2.092   2.270   1.652
  332SL       H 4979   1.945   2.490   1.607
  332SL       H 4980   1.904   2.389   1.749
  333SL       O 4981   3.022   0.577   3.804
  333SL       S 4982   3.063   0.479   3.902
  333SL       O 4983   3.190   0.487   3.970
  333SL       C 4984   2.933   0.463   4.023
  333SL       C 4985   2.901   0.314   4.028
  333SL       C 4986   2.913   0.264   3.884
  333SL       C 4987   3.045   0.316   3.832
  333SL       H 4988   2.967   0.502   4.120
  333SL       H 4989   2.847   0.520   3.989
  333SL       H 4990   2.802   0.296   4.069
  333SL       H 4991   2.974   0.262   4.091
  333SL       H 4992   2.829   0.305   3.824
  333SL       H 4993   2.907   0.155   3.878
  333SL       H 4994   3.048   0.323   3.723
  333SL       H 4995   3.128   0.255   3.868
  334SL       O 4996   1.489   3.317   0.497
  334SL       S 4997   1.577   3.355   0.389
  334SL       O 4998   1.546   3.326   0.250
  334SL       C 4999   1.615   3.529   0.404
  334SL       C 5000   1.767   3.537   0.403
  334SL       C 5001   1.816   3.415   0.481
  334SL       C 5002   1.742   3.296   0.424
  334SL       H 5003   1.569   3.585   0.322
  334SL       H 5004   1.574   3.564   0.500
  334SL       H 5005   1.802   3.630   0.448
  334SL       H 5006   1.804   3.532   0.300
  334SL       H 5007   1.792   3.427   0.588
  334SL       H 5008   1.924   3.402   0.473
  334SL       H 5009   1.736   3.212   0.493
  334SL       H 5010   1.786   3.263   0.329
  335SL       O 5011   0.358   3.069   2.827
  335SL       S 5012   0.390   2.934   2.787
  335SL       O 5013   0.412   2.829   2.885
  335SL       C 5014   0.268   2.879   2.670
  335SL       C 5015   0.348   2.831   2.549
  335SL       C 5016   0.466   2.926   2.536
  335SL       C 5017   0.527   2.937   2.674
  335SL       H 5018   0.206   2.800   2.713
  335SL       H 5019   0.205   2.965   2.643
  335SL       H 5020   0.287   2.829   2.458
  335SL       H 5021   0.385   2.729   2.567
  335SL       H 5022   0.430   3.025   2.503
  335SL       H 5023   0.539   2.891   2.462
  335SL       H 5024   0.585   3.029   2.689
  335SL       H 5025   0.590   2.850   2.696
  336SL       O 5026   3.693   1.016   0.825
  336SL       S 5027   3.827   0.989   0.871
  336SL       O 5028   3.853   0.906   0.988
  336SL       C 5029   3.922   0.926   0.734
  336SL       C 5030   4.046   1.015   0.728
  336SL       C 5031   3.998   1.156   0.763
  336SL       C 5032   3.916   1.142   0.889
  336SL       H 5033   3.947   0.821   0.750
  336SL       H 5034   3.862   0.937   0.643
  336SL       H 5035   4.093   1.012   0.629
  336SL       H 5036   4.120   0.982   0.801
  336SL       H 5037   3.936   1.195   0.680
  336SL       H 5038   4.082   1.225   0.777
  336SL       H 5039   3.845   1.224   0.902
  336SL       H 5040   3.980   1.134   0.977
  337SL       O 5041   1.146   2.641   3.855
  337SL       S 5042   1.239   2.719   3.776
  337SL       O 5043   1.263   2.859   3.801
  337SL       C 5044   1.395   2.633   3.772
  337SL       C 5045   1.429   2.619   3.624
  337SL       C 5046   1.296   2.593   3.552
  337SL       C 5047   1.200   2.697   3.603
  337SL       H 5048   1.471   2.690   3.827
  337SL       H 5049   1.382   2.535   3.818
  337SL       H 5050   1.501   2.539   3.606
  337SL       H 5051   1.473   2.713   3.586
  337SL       H 5052   1.261   2.492   3.579
  337SL       H 5053   1.307   2.597   3.444
  337SL       H 5054   1.095   2.668   3.593
  337SL       H 5055   1.216   2.793   3.553
  338SL       O 5056   3.310   0.310   1.050
  338SL       S 5057   3.331   0.442   1.104
  338SL       O 5058   3.340   0.466   1.247
  338SL       C 5059   3.474   0.514   1.025
  338SL       C 5060   3.425   0.648   0.970
  338SL       C 5061   3.282   0.625   0.922
  338SL       C 5062   3.211   0.553   1.034
  338SL       H 5063   3.556   0.524   1.096
  338SL       H 5064   3.504   0.448   0.943
  338SL       H 5065   3.490   0.684   0.890
  338SL       H 5066   3.425   0.723   1.050
  338SL       H 5067   3.284   0.561   0.831
  338SL       H 5068   3.233   0.718   0.895
  338SL       H 5069   3.124   0.497   1.000
  338SL       H 5070   3.181   0.623   1.113
  339SL       O 5071   1.773   2.804   2.551
  339SL       S 5072   1.685   2.845   2.445
  339SL       O 5073   1.728   2.849   2.306
  339SL       C 5074   1.535   2.749   2.456
  339SL       C 5075   1.422   2.852   2.459
  339SL       C 5076   1.475   2.970   2.542
  339SL       C 5077   1.612   3.002   2.487
  339SL       H 5078   1.527   2.681   2.371
  339SL       H 5079   1.538   2.692   2.549
  339SL       H 5080   1.331   2.810   2.502
  339SL       H 5081   1.399   2.887   2.358
  339SL       H 5082   1.483   2.939   2.648
  339SL       H 5083   1.408   3.056   2.538
  339SL       H 5084   1.676   3.054   2.559
  339SL       H 5085   1.604   3.061   2.395
  340SL       O 5086   0.829   2.966   1.799
  340SL       S 5087   0.875   2.830   1.803
  340SL       O 5088   1.016   2.796   1.812
  340SL       C 5089   0.787   2.744   1.933
  340SL       C 5090   0.727   2.621   1.865
  340SL       C 5091   0.685   2.666   1.725
  340SL       C 5092   0.803   2.740   1.667
  340SL       H 5093   0.855   2.718   2.014
  340SL       H 5094   0.708   2.810   1.970
  340SL       H 5095   0.643   2.581   1.922
  340SL       H 5096   0.803   2.542   1.857
  340SL       H 5097   0.598   2.733   1.734
  340SL       H 5098   0.655   2.581   1.663
  340SL       H 5099   0.775   2.809   1.588
  340SL       H 5100   0.879   2.670   1.630
   4.22000   4.22000   4.22000
