A Gromacs structure file written by ASE 
   12
    1DMC      C    1   0.230  -0.022   0.027  0.0000  0.0000  0.0000
    1DMC      O    2   0.105   0.030   0.074  0.0000  0.0000  0.0000
    1DMC      C    3  -0.000   0.000  -0.006  0.0000  0.0000  0.0000
    1DMC      O    4   0.005  -0.064  -0.110  0.0000  0.0000  0.0000
    1DMC      O    5  -0.112   0.054   0.049  0.0000  0.0000  0.0000
    1DMC      C    6  -0.230   0.030  -0.026  0.0000  0.0000  0.0000
    1DMC      H    7   0.255   0.020  -0.071  0.0000  0.0000  0.0000
    1DMC      H    8   0.308   0.007   0.098  0.0000  0.0000  0.0000
    1DMC      H    9   0.227  -0.131   0.022  0.0000  0.0000  0.0000
    1DMC      H   10  -0.314   0.078   0.026  0.0000  0.0000  0.0000
    1DMC      H   11  -0.222   0.075  -0.126  0.0000  0.0000  0.0000
    1DMC      H   12  -0.250  -0.077  -0.033  0.0000  0.0000  0.0000

