; ITP file created by ByteFF-ML, 2026-09-15 16:43:19.833907

[ moleculetype ]
;name             nrexcl
 EMC                   3

[ atoms ]
;       nr            type      resi   res      atom      cgnr      charge          mass ; qtot
         1            c0bf         1   UNL        c0         1    -0.22549       12.0110 ; qtot   -0.225
         2            c1bf         1   UNL        c1         2     0.33463       12.0110 ; qtot    0.109
         3            o2bf         1   UNL        o2         3    -0.46876       15.9990 ; qtot   -0.360
         4            c3bf         1   UNL        c3         4     0.86980       12.0110 ; qtot    0.510
         5            o4bf         1   UNL        o4         5    -0.64223       15.9990 ; qtot   -0.132
         6            o5bf         1   UNL        o5         6    -0.40717       15.9990 ; qtot   -0.539
         7            c6bf         1   UNL        c6         7     0.10921       12.0110 ; qtot   -0.430
         8            h7bf         1   UNL        h7         8     0.07789        1.0080 ; qtot   -0.352
         9            h8bf         1   UNL        h8         9     0.07789        1.0080 ; qtot   -0.274
        10            h9bf         1   UNL        h9        10     0.07789        1.0080 ; qtot   -0.196
        11           h10bf         1   UNL       h10        11     0.00474        1.0080 ; qtot   -0.192
        12           h11bf         1   UNL       h11        12     0.00474        1.0080 ; qtot   -0.187
        13           h12bf         1   UNL       h12        13     0.06229        1.0080 ; qtot   -0.125
        14           h13bf         1   UNL       h13        14     0.06229        1.0080 ; qtot   -0.062
        15           h14bf         1   UNL       h14        15     0.06228        1.0080 ; qtot    0.000

[ bonds ]
;       ai        aj funct               r               k
         1         2     1        0.150710   202651.646729
         1         8     1        0.109471   304566.445215
         1         9     1        0.109471   304566.445215
         1        10     1        0.109471   304566.445215
         2         3     1        0.145618   159450.825244
         2        11     1        0.109343   302029.588770
         2        12     1        0.109343   302029.588770
         3         4     1        0.134914   244264.545215
         4         5     1        0.121882   654077.896484
         4         6     1        0.136106   238472.779883
         6         7     1        0.144525   186655.112036
         7        13     1        0.109217   309338.207324
         7        14     1        0.109217   309338.207324
         7        15     1        0.109217   309338.207324

[ angles ]
;       ai        aj        ak funct           theta             cth
         1         2         3     1      109.552551      680.277822
         1         2        11     1      111.686905      483.379047
         1         2        12     1      111.686905      483.379047
         2         1         8     1      110.654922      501.610053
         2         1         9     1      110.654922      501.610053
         2         1        10     1      110.654922      501.610053
         2         3         4     1      116.367943      577.444351
         3         2        11     1      107.510178      481.351656
         3         2        12     1      107.510178      481.351656
         3         4         5     1      126.643715      487.886219
         3         4         6     1      108.862312      565.826690
         4         6         7     1      115.272491      529.116840
         5         4         6     1      126.276016      477.072403
         6         7        13     1      108.800438      467.976755
         6         7        14     1      108.800438      467.976755
         6         7        15     1      108.800438      467.976755
         8         1         9     1      108.653671      359.943673
         8         1        10     1      108.653671      359.943673
         9         1        10     1      108.653687      359.943961
        11         2        12     1      109.278183      343.265387
        13         7        14     1      110.446419      340.926188
        13         7        15     1      110.446419      340.926188
        14         7        15     1      110.446419      340.926188

[ dihedrals ] ; propers for gromacs 4.5 or higher, use funct 9
;       ai        aj        ak        al funct           phase               k        pn
         1         2         3         4     9        0.000000        0.797797         1
         1         2         3         4     9      180.000000        0.248785         2
         1         2         3         4     9        0.000000        0.493403         3
         1         2         3         4     9      180.000000       -0.057359         4
         2         3         4         5     9        0.000000        4.749645         1
         2         3         4         5     9      180.000000        8.569466         2
         2         3         4         5     9        0.000000        0.646829         3
         2         3         4         5     9      180.000000       -0.387266         4
         2         3         4         6     9        0.000000        3.477699         1
         2         3         4         6     9      180.000000        8.956853         2
         2         3         4         6     9        0.000000        0.834938         3
         2         3         4         6     9      180.000000       -0.121253         4
         3         2         1         8     9        0.000000       -2.048213         1
         3         2         1         8     9      180.000000        3.186760         2
         3         2         1         8     9        0.000000        0.684609         3
         3         2         1         8     9      180.000000        0.043182         4
         3         2         1         9     9        0.000000       -2.048213         1
         3         2         1         9     9      180.000000        3.186760         2
         3         2         1         9     9        0.000000        0.684609         3
         3         2         1         9     9      180.000000        0.043182         4
         3         2         1        10     9        0.000000       -2.048213         1
         3         2         1        10     9      180.000000        3.186760         2
         3         2         1        10     9        0.000000        0.684609         3
         3         2         1        10     9      180.000000        0.043182         4
         3         4         6         7     9        0.000000        3.037924         1
         3         4         6         7     9      180.000000        9.778275         2
         3         4         6         7     9        0.000000        0.442215         3
         3         4         6         7     9      180.000000       -0.135155         4
         4         3         2        11     9        0.000000        5.472149         1
         4         3         2        11     9      180.000000        2.202772         2
         4         3         2        11     9        0.000000        0.347859         3
         4         3         2        11     9      180.000000        0.019132         4
         4         3         2        12     9        0.000000        5.472149         1
         4         3         2        12     9      180.000000        2.202772         2
         4         3         2        12     9        0.000000        0.347859         3
         4         3         2        12     9      180.000000        0.019132         4
         4         6         7        13     9        0.000000        4.392609         1
         4         6         7        13     9      180.000000        4.075522         2
         4         6         7        13     9        0.000000        0.230901         3
         4         6         7        13     9      180.000000        0.236233         4
         4         6         7        14     9        0.000000        4.392609         1
         4         6         7        14     9      180.000000        4.075522         2
         4         6         7        14     9        0.000000        0.230901         3
         4         6         7        14     9      180.000000        0.236233         4
         4         6         7        15     9        0.000000        4.392605         1
         4         6         7        15     9      180.000000        4.075522         2
         4         6         7        15     9        0.000000        0.230901         3
         4         6         7        15     9      180.000000        0.236233         4
         5         4         6         7     9        0.000000        4.018983         1
         5         4         6         7     9      180.000000        9.656186         2
         5         4         6         7     9        0.000000        0.268940         3
         5         4         6         7     9      180.000000       -0.340387         4
         8         1         2        11     9        0.000000       -1.118630         1
         8         1         2        11     9      180.000000        4.988034         2
         8         1         2        11     9        0.000000        0.733560         3
         8         1         2        11     9      180.000000       -0.119092         4
         8         1         2        12     9        0.000000       -1.118630         1
         8         1         2        12     9      180.000000        4.988034         2
         8         1         2        12     9        0.000000        0.733560         3
         8         1         2        12     9      180.000000       -0.119092         4
         9         1         2        11     9        0.000000       -1.118626         1
         9         1         2        11     9      180.000000        4.988035         2
         9         1         2        11     9        0.000000        0.733560         3
         9         1         2        11     9      180.000000       -0.119091         4
         9         1         2        12     9        0.000000       -1.118626         1
         9         1         2        12     9      180.000000        4.988035         2
         9         1         2        12     9        0.000000        0.733560         3
         9         1         2        12     9      180.000000       -0.119091         4
        10         1         2        11     9        0.000000       -1.118631         1
        10         1         2        11     9      180.000000        4.988036         2
        10         1         2        11     9        0.000000        0.733561         3
        10         1         2        11     9      180.000000       -0.119092         4
        10         1         2        12     9        0.000000       -1.118631         1
        10         1         2        12     9      180.000000        4.988036         2
        10         1         2        12     9        0.000000        0.733561         3
        10         1         2        12     9      180.000000       -0.119092         4

[ dihedrals ] ; impropers
;       ai        aj        ak        al funct           phase               k        pn
         4         3         5         6     4      180.000000       50.881871         2
         4         5         6         3     4      180.000000       50.881871         2
         4         6         3         5     4      180.000000       50.881871         2

[ pairs ]
;       ai        aj funct
         1         4     1
         2         5     1
         2         6     1
         3         7     1
         3         8     1
         3         9     1
         3        10     1
         4        11     1
         4        12     1
         4        13     1
         4        14     1
         4        15     1
         5         7     1
         8        11     1
         8        12     1
         9        11     1
         9        12     1
        10        11     1
        10        12     1
