; ITP file created by ByteFF-ML, 2026-09-15 16:43:19.718906

[ defaults ]
;     nbfunc   comb-rule   gen-pairs     fudgeLJ     fudgeQQ
           1           2         yes  0.50000000  0.50000000

#include "EC.itp"
#include "DMC.itp"
#include "EMC.itp"
#include "FEC.itp"
#include "PF6.itp"
#include "LI.itp"

#include "EC.atp"
#include "DMC.atp"
#include "EMC.atp"
#include "FEC.atp"
#include "PF6.atp"
#include "LI.atp"

[ system ]
Full System

[ molecules ]
;molecule            nmols
 EC                     85
 DMC                    85
 EMC                    85
 FEC                    85
 PF6                    34
 LI                     34