A Gromacs structure file written by ASE
 5100
    1SL       O    1   3.520   0.877   3.898
    1SL       S    2   3.426   0.812   3.810
    1SL       O    3   3.431   0.827   3.666
    1SL       C    4   3.422   0.638   3.850
    1SL       C    5   3.275   0.606   3.875
    1SL       C    6   3.216   0.728   3.946
    1SL       C    7   3.260   0.848   3.865
    1SL       H    8   3.464   0.580   3.768
    1SL       H    9   3.481   0.623   3.941
    1SL       H   10   3.263   0.515   3.935
    1SL       H   11   3.223   0.591   3.780
    1SL       H   12   3.258   0.734   4.048
    1SL       H   13   3.108   0.722   3.955
    1SL       H   14   3.260   0.941   3.924
    1SL       H   15   3.197   0.861   3.777
    2SL       O   16   2.380   3.603   2.810
    2SL       S   17   2.476   3.537   2.895
    2SL       O   18   2.608   3.592   2.918
    2SL       C   19   2.400   3.502   3.052
    2SL       C   20   2.421   3.352   3.074
    2SL       C   21   2.407   3.287   2.937
    2SL       C   22   2.494   3.367   2.843
    2SL       H   23   2.445   3.563   3.130
    2SL       H   24   2.293   3.525   3.044
    2SL       H   25   2.349   3.312   3.146
    2SL       H   26   2.522   3.334   3.114
    2SL       H   27   2.302   3.291   2.905
    2SL       H   28   2.436   3.181   2.939
    2SL       H   29   2.464   3.357   2.738
    2SL       H   30   2.599   3.340   2.854
    3SL       O   31   1.881   0.145   1.186
    3SL       S   32   1.812   0.203   1.298
    3SL       O   33   1.672   0.177   1.324
    3SL       C   34   1.906   0.169   1.446
    3SL       C   35   1.927   0.305   1.512
    3SL       C   36   1.950   0.404   1.397
    3SL       C   37   1.838   0.380   1.298
    3SL       H   38   1.851   0.100   1.510
    3SL       H   39   2.001   0.125   1.416
    3SL       H   40   2.012   0.303   1.581
    3SL       H   41   1.838   0.334   1.568
    3SL       H   42   2.048   0.384   1.350
    3SL       H   43   1.951   0.508   1.432
    3SL       H   44   1.863   0.413   1.197
    3SL       H   45   1.745   0.427   1.331
    4SL       O   46   2.810   3.951   1.525
    4SL       S   47   2.682   3.943   1.459
    4SL       O   48   2.667   3.968   1.318
    4SL       C   49   2.608   3.786   1.498
    4SL       C   50   2.470   3.819   1.554
    4SL       C   51   2.487   3.947   1.636
    4SL       C   52   2.564   4.043   1.548
    4SL       H   53   2.603   3.723   1.409
    4SL       H   54   2.669   3.737   1.575
    4SL       H   55   2.430   3.737   1.614
    4SL       H   56   2.400   3.838   1.471
    4SL       H   57   2.545   3.924   1.727
    4SL       H   58   2.391   3.989   1.667
    4SL       H   59   2.617   4.120   1.606
    4SL       H   60   2.498   4.091   1.475
    5SL       O   61   2.691   2.973   2.240
    5SL       S   62   2.592   3.058   2.177
    5SL       O   63   2.478   3.109   2.249
    5SL       C   64   2.677   3.194   2.099
    5SL       C   65   2.628   3.193   1.954
    5SL       C   66   2.614   3.045   1.915
    5SL       C   67   2.536   2.980   2.027
    5SL       H   68   2.653   3.288   2.150
    5SL       H   69   2.784   3.175   2.104
    5SL       H   70   2.698   3.246   1.888
    5SL       H   71   2.530   3.242   1.947
    5SL       H   72   2.715   3.000   1.908
    5SL       H   73   2.565   3.033   1.819
    5SL       H   74   2.553   2.872   2.033
    5SL       H   75   2.429   3.001   2.017
    6SL       O   76   3.660   0.239   1.838
    6SL       S   77   3.713   0.369   1.806
    6SL       O   78   3.783   0.395   1.682
    6SL       C   79   3.582   0.489   1.824
    6SL       C   80   3.639   0.596   1.918
    6SL       C   81   3.724   0.520   2.021
    6SL       C   82   3.813   0.427   1.941
    6SL       H   83   3.554   0.530   1.727
    6SL       H   84   3.496   0.440   1.870
    6SL       H   85   3.560   0.654   1.966
    6SL       H   86   3.703   0.665   1.862
    6SL       H   87   3.658   0.462   2.087
    6SL       H   88   3.782   0.588   2.083
    6SL       H   89   3.848   0.342   2.000
    6SL       H   90   3.898   0.481   1.899
    7SL       O   91   0.698   2.196   0.516
    7SL       S   92   0.645   2.326   0.482
    7SL       O   93   0.644   2.376   0.346
    7SL       C   94   0.481   2.340   0.551
    7SL       C   95   0.484   2.469   0.633
    7SL       C   96   0.622   2.475   0.698
    7SL       C   97   0.721   2.449   0.587
    7SL       H   98   0.407   2.343   0.471
    7SL       H   99   0.463   2.253   0.615
    7SL       H  100   0.404   2.469   0.708
    7SL       H  101   0.470   2.556   0.568
    7SL       H  102   0.629   2.396   0.775
    7SL       H  103   0.640   2.571   0.747
    7SL       H  104   0.817   2.411   0.624
    7SL       H  105   0.737   2.539   0.527
    8SL       O  106   3.732   0.854   3.070
    8SL       S  107   3.605   0.810   3.016
    8SL       O  108   3.569   0.834   2.878
    8SL       C  109   3.585   0.636   3.051
    8SL       C  110   3.450   0.626   3.121
    8SL       C  111   3.437   0.750   3.209
    8SL       C  112   3.473   0.867   3.121
    8SL       H  113   3.590   0.578   2.959
    8SL       H  114   3.666   0.606   3.119
    8SL       H  115   3.442   0.533   3.179
    8SL       H  116   3.369   0.625   3.046
    8SL       H  117   3.508   0.742   3.293
    8SL       H  118   3.337   0.760   3.251
    8SL       H  119   3.507   0.955   3.178
    8SL       H  120   3.389   0.895   3.056
    9SL       O  121   3.244   4.064   3.575
    9SL       S  122   3.272   4.037   3.436
    9SL       O  123   3.361   4.120   3.358
    9SL       C  124   3.322   3.867   3.421
    9SL       C  125   3.230   3.807   3.315
    9SL       C  126   3.093   3.871   3.338
    9SL       C  127   3.117   4.020   3.349
    9SL       H  128   3.428   3.861   3.393
    9SL       H  129   3.307   3.818   3.518
    9SL       H  130   3.225   3.698   3.323
    9SL       H  131   3.266   3.833   3.215
    9SL       H  132   3.050   3.833   3.432
    9SL       H  133   3.023   3.847   3.258
    9SL       H  134   3.038   4.072   3.403
    9SL       H  135   3.130   4.065   3.250
   10SL       O  136   1.960   2.006   4.119
   10SL       S  137   1.911   2.123   4.050
   10SL       O  138   1.841   2.229   4.120
   10SL       C  139   2.045   2.193   3.957
   10SL       C  140   1.991   2.205   3.814
   10SL       C  141   1.905   2.081   3.791
   10SL       C  142   1.813   2.071   3.910
   10SL       H  143   2.073   2.290   3.999
   10SL       H  144   2.129   2.124   3.961
   10SL       H  145   2.073   2.212   3.741
   10SL       H  146   1.930   2.296   3.804
   10SL       H  147   1.970   1.992   3.785
   10SL       H  148   1.849   2.088   3.697
   10SL       H  149   1.775   1.970   3.927
   10SL       H  150   1.729   2.141   3.901
   11SL       O  151   2.428   2.903   3.010
   11SL       S  152   2.304   2.942   2.947
   11SL       O  153   2.301   2.994   2.811
   11SL       C  154   2.189   2.807   2.960
   11SL       C  155   2.064   2.867   3.023
   11SL       C  156   2.114   2.969   3.125
   11SL       C  157   2.216   3.054   3.054
   11SL       H  158   2.170   2.764   2.861
   11SL       H  159   2.233   2.731   3.025
   11SL       H  160   2.001   2.790   3.069
   11SL       H  161   2.004   2.918   2.946
   11SL       H  162   2.160   2.916   3.210
   11SL       H  163   2.032   3.030   3.165
   11SL       H  164   2.287   3.102   3.122
   11SL       H  165   2.168   3.129   2.991
   12SL       O  166   1.098   0.763   1.354
   12SL       S  167   1.167   0.828   1.462
   12SL       O  168   1.127   0.810   1.600
   12SL       C  169   1.341   0.793   1.448
   12SL       C  170   1.409   0.929   1.450
   12SL       C  171   1.318   1.024   1.372
   12SL       C  172   1.179   1.003   1.428
   12SL       H  173   1.373   0.728   1.530
   12SL       H  174   1.358   0.742   1.352
   12SL       H  175   1.509   0.924   1.405
   12SL       H  176   1.420   0.964   1.553
   12SL       H  177   1.320   0.997   1.265
   12SL       H  178   1.350   1.128   1.381
   12SL       H  179   1.100   1.032   1.358
   12SL       H  180   1.166   1.056   1.523
   13SL       O  181   3.591   3.124   3.798
   13SL       S  182   3.459   3.177   3.825
   13SL       O  183   3.439   3.315   3.866
   13SL       C  184   3.354   3.141   3.686
   13SL       C  185   3.233   3.070   3.746
   13SL       C  186   3.286   2.981   3.858
   13SL       C  187   3.376   3.070   3.942
   13SL       H  188   3.327   3.233   3.634
   13SL       H  189   3.408   3.074   3.619
   13SL       H  190   3.180   3.011   3.670
   13SL       H  191   3.162   3.143   3.787
   13SL       H  192   3.344   2.898   3.815
   13SL       H  193   3.206   2.938   3.918
   13SL       H  194   3.451   3.014   3.999
   13SL       H  195   3.318   3.133   4.009
   14SL       O  196   4.057   0.765   2.302
   14SL       S  197   4.019   0.867   2.207
   14SL       O  198   4.082   0.877   2.076
   14SL       C  199   3.842   0.862   2.186
   14SL       C  200   3.796   1.005   2.212
   14SL       C  201   3.883   1.058   2.325
   14SL       C  202   4.026   1.026   2.286
   14SL       H  203   3.817   0.827   2.085
   14SL       H  204   3.801   0.793   2.260
   14SL       H  205   3.689   1.008   2.239
   14SL       H  206   3.810   1.066   2.122
   14SL       H  207   3.857   1.006   2.419
   14SL       H  208   3.869   1.165   2.341
   14SL       H  209   4.094   1.022   2.372
   14SL       H  210   4.064   1.098   2.213
   15SL       O  211   0.624   3.303   2.332
   15SL       S  212   0.589   3.200   2.427
   15SL       O  213   0.574   3.228   2.568
   15SL       C  214   0.443   3.116   2.368
   15SL       C  215   0.480   2.968   2.367
   15SL       C  216   0.626   2.961   2.322
   15SL       C  217   0.700   3.062   2.407
   15SL       H  218   0.358   3.138   2.434
   15SL       H  219   0.422   3.152   2.267
   15SL       H  220   0.414   2.911   2.300
   15SL       H  221   0.470   2.926   2.468
   15SL       H  222   0.633   2.989   2.216
   15SL       H  223   0.667   2.861   2.333
   15SL       H  224   0.793   3.096   2.361
   15SL       H  225   0.721   3.021   2.507
   16SL       O  226   2.940   3.488   3.777
   16SL       S  227   2.882   3.415   3.887
   16SL       O  228   2.748   3.443   3.935
   16SL       C  229   2.898   3.241   3.855
   16SL       C  230   2.967   3.183   3.978
   16SL       C  231   3.069   3.288   4.023
   16SL       C  232   2.994   3.420   4.026
   16SL       H  233   2.799   3.197   3.837
   16SL       H  234   2.960   3.228   3.766
   16SL       H  235   3.014   3.087   3.957
   16SL       H  236   2.893   3.167   4.058
   16SL       H  237   3.151   3.292   3.949
   16SL       H  238   3.113   3.264   4.120
   16SL       H  239   3.061   3.507   4.017
   16SL       H  240   2.934   3.429   4.117
   17SL       O  241   3.039   0.894   3.350
   17SL       S  242   2.938   0.838   3.436
   17SL       O  243   2.970   0.782   3.566
   17SL       C  244   2.807   0.957   3.455
   17SL       C  245   2.680   0.882   3.417
   17SL       C  246   2.717   0.790   3.301
   17SL       C  247   2.843   0.718   3.344
   17SL       H  248   2.805   0.994   3.558
   17SL       H  249   2.826   1.040   3.386
   17SL       H  250   2.599   0.952   3.389
   17SL       H  251   2.644   0.822   3.502
   17SL       H  252   2.738   0.852   3.211
   17SL       H  253   2.637   0.721   3.276
   17SL       H  254   2.902   0.681   3.260
   17SL       H  255   2.819   0.635   3.412
   18SL       O  256   0.560   1.944   3.663
   18SL       S  257   0.632   1.841   3.590
   18SL       O  258   0.666   1.856   3.450
   18SL       C  259   0.779   1.799   3.682
   18SL       C  260   0.772   1.648   3.700
   18SL       C  261   0.625   1.614   3.722
   18SL       C  262   0.549   1.685   3.613
   18SL       H  263   0.868   1.831   3.627
   18SL       H  264   0.774   1.850   3.779
   18SL       H  265   0.835   1.615   3.783
   18SL       H  266   0.808   1.598   3.609
   18SL       H  267   0.594   1.651   3.821
   18SL       H  268   0.607   1.506   3.720
   18SL       H  269   0.444   1.703   3.639
   18SL       H  270   0.555   1.630   3.519
   19SL       O  271   2.659   3.670   3.673
   19SL       S  272   2.669   3.776   3.575
   19SL       O  273   2.689   3.748   3.434
   19SL       C  274   2.529   3.885   3.594
   19SL       C  275   2.589   4.024   3.609
   19SL       C  276   2.716   4.007   3.692
   19SL       C  277   2.793   3.893   3.628
   19SL       H  278   2.463   3.877   3.506
   19SL       H  279   2.475   3.855   3.684
   19SL       H  280   2.518   4.093   3.657
   19SL       H  281   2.615   4.065   3.511
   19SL       H  282   2.688   3.980   3.796
   19SL       H  283   2.775   4.098   3.696
   19SL       H  284   2.862   3.844   3.697
   19SL       H  285   2.846   3.928   3.539
   20SL       O  286   3.329   1.101   2.373
   20SL       S  287   3.375   1.186   2.480
   20SL       O  288   3.284   1.248   2.574
   20SL       C  289   3.502   1.099   2.570
   20SL       C  290   3.622   1.194   2.572
   20SL       C  291   3.623   1.264   2.436
   20SL       C  292   3.482   1.313   2.413
   20SL       H  293   3.466   1.075   2.671
   20SL       H  294   3.526   1.008   2.516
   20SL       H  295   3.715   1.141   2.591
   20SL       H  296   3.609   1.269   2.651
   20SL       H  297   3.651   1.190   2.358
   20SL       H  298   3.695   1.345   2.432
   20SL       H  299   3.459   1.327   2.307
   20SL       H  300   3.463   1.405   2.468
   21SL       O  301   3.367   3.429   1.459
   21SL       S  302   3.426   3.411   1.328
   21SL       O  303   3.477   3.283   1.283
   21SL       C  304   3.312   3.474   1.206
   21SL       C  305   3.394   3.573   1.123
   21SL       C  306   3.486   3.644   1.222
   21SL       C  307   3.552   3.535   1.304
   21SL       H  308   3.273   3.392   1.145
   21SL       H  309   3.230   3.525   1.258
   21SL       H  310   3.329   3.644   1.071
   21SL       H  311   3.454   3.520   1.048
   21SL       H  312   3.427   3.710   1.287
   21SL       H  313   3.560   3.706   1.171
   21SL       H  314   3.588   3.570   1.401
   21SL       H  315   3.634   3.488   1.248
   22SL       O  316   3.551   1.763   1.677
   22SL       S  317   3.649   1.664   1.716
   22SL       O  318   3.718   1.670   1.843
   22SL       C  319   3.577   1.502   1.696
   22SL       C  320   3.676   1.426   1.608
   22SL       C  321   3.729   1.526   1.506
   22SL       C  322   3.771   1.648   1.586
   22SL       H  323   3.563   1.455   1.793
   22SL       H  324   3.481   1.514   1.645
   22SL       H  325   3.628   1.340   1.559
   22SL       H  326   3.759   1.387   1.669
   22SL       H  327   3.649   1.553   1.435
   22SL       H  328   3.813   1.486   1.448
   22SL       H  329   3.773   1.740   1.526
   22SL       H  330   3.868   1.633   1.633
   23SL       O  331   2.151   0.461   3.550
   23SL       S  332   2.247   0.412   3.646
   23SL       O  333   2.235   0.440   3.787
   23SL       C  334   2.265   0.236   3.623
   23SL       C  335   2.415   0.214   3.605
   23SL       C  336   2.466   0.333   3.524
   23SL       C  337   2.411   0.456   3.592
   23SL       H  338   2.224   0.183   3.709
   23SL       H  339   2.210   0.208   3.532
   23SL       H  340   2.435   0.119   3.554
   23SL       H  341   2.464   0.211   3.702
   23SL       H  342   2.428   0.326   3.421
   23SL       H  343   2.575   0.335   3.519
   23SL       H  344   2.406   0.543   3.525
   23SL       H  345   2.470   0.482   3.680
   24SL       O  346   0.881   1.990   0.821
   24SL       S  347   0.778   2.088   0.847
   24SL       O  348   0.797   2.228   0.816
   24SL       C  349   0.627   2.032   0.770
   24SL       C  350   0.523   2.035   0.882
   24SL       C  351   0.595   1.990   1.009
   24SL       C  352   0.722   2.072   1.015
   24SL       H  353   0.600   2.097   0.686
   24SL       H  354   0.642   1.930   0.734
   24SL       H  355   0.438   1.970   0.859
   24SL       H  356   0.485   2.137   0.895
   24SL       H  357   0.619   1.883   1.001
   24SL       H  358   0.534   2.004   1.098
   24SL       H  359   0.800   2.025   1.075
   24SL       H  360   0.702   2.173   1.053
   25SL       O  361   2.257   1.276   2.190
   25SL       S  362   2.155   1.325   2.279
   25SL       O  363   2.018   1.347   2.234
   25SL       C  364   2.151   1.221   2.424
   25SL       C  365   2.164   1.317   2.541
   25SL       C  366   2.261   1.427   2.496
   25SL       C  367   2.213   1.472   2.360
   25SL       H  368   2.059   1.163   2.427
   25SL       H  369   2.237   1.153   2.419
   25SL       H  370   2.200   1.266   2.631
   25SL       H  371   2.067   1.362   2.565
   25SL       H  372   2.363   1.384   2.488
   25SL       H  373   2.266   1.509   2.567
   25SL       H  374   2.292   1.518   2.300
   25SL       H  375   2.128   1.541   2.370
   26SL       O  376   1.773   0.290   0.660
   26SL       S  377   1.796   0.255   0.798
   26SL       O  378   1.711   0.161   0.869
   26SL       C  379   1.966   0.207   0.818
   26SL       C  380   2.020   0.294   0.931
   26SL       C  381   1.954   0.432   0.913
   26SL       C  382   1.806   0.405   0.895
   26SL       H  383   1.972   0.100   0.841
   26SL       H  384   2.019   0.228   0.724
   26SL       H  385   2.129   0.301   0.928
   26SL       H  386   1.991   0.253   1.028
   26SL       H  387   1.996   0.480   0.822
   26SL       H  388   1.973   0.498   0.997
   26SL       H  389   1.755   0.486   0.842
   26SL       H  390   1.758   0.386   0.991
   27SL       O  391   1.512   2.188   0.456
   27SL       S  392   1.419   2.111   0.535
   27SL       O  393   1.277   2.108   0.505
   27SL       C  394   1.479   1.943   0.544
   27SL       C  395   1.483   1.911   0.693
   27SL       C  396   1.528   2.039   0.763
   27SL       C  397   1.441   2.150   0.707
   27SL       H  398   1.412   1.876   0.489
   27SL       H  399   1.579   1.940   0.501
   27SL       H  400   1.551   1.828   0.715
   27SL       H  401   1.383   1.883   0.729
   27SL       H  402   1.634   2.059   0.739
   27SL       H  403   1.520   2.032   0.872
   27SL       H  404   1.487   2.249   0.717
   27SL       H  405   1.343   2.150   0.754
   28SL       O  406   3.776   3.916   2.184
   28SL       S  407   3.806   3.872   2.050
   28SL       O  408   3.745   3.753   1.993
   28SL       C  409   3.781   4.009   1.939
   28SL       C  410   3.911   4.020   1.860
   28SL       C  411   4.023   3.989   1.960
   28SL       C  412   3.982   3.861   2.030
   28SL       H  413   3.695   3.989   1.874
   28SL       H  414   3.763   4.098   1.998
   28SL       H  415   3.923   4.120   1.817
   28SL       H  416   3.913   3.947   1.779
   28SL       H  417   4.031   4.071   2.033
   28SL       H  418   4.120   3.979   1.911
   28SL       H  419   4.030   3.849   2.127
   28SL       H  420   4.003   3.774   1.967
   29SL       O  421   1.479   2.649   3.356
   29SL       S  422   1.410   2.597   3.471
   29SL       O  423   1.446   2.635   3.606
   29SL       C  424   1.235   2.623   3.448
   29SL       C  425   1.172   2.485   3.468
   29SL       C  426   1.269   2.385   3.406
   29SL       C  427   1.405   2.419   3.461
   29SL       H  428   1.198   2.696   3.520
   29SL       H  429   1.219   2.659   3.346
   29SL       H  430   1.073   2.480   3.421
   29SL       H  431   1.160   2.464   3.575
   29SL       H  432   1.268   2.396   3.296
   29SL       H  433   1.241   2.282   3.428
   29SL       H  434   1.487   2.383   3.398
   29SL       H  435   1.417   2.379   3.562
   30SL       O  436   0.650   2.597   0.334
   30SL       S  437   0.565   2.644   0.227
   30SL       O  438   0.618   2.689   0.100
   30SL       C  439   0.438   2.522   0.198
   30SL       C  440   0.306   2.599   0.208
   30SL       C  441   0.325   2.701   0.320
   30SL       C  442   0.456   2.771   0.291
   30SL       H  443   0.453   2.476   0.100
   30SL       H  444   0.445   2.447   0.276
   30SL       H  445   0.223   2.531   0.228
   30SL       H  446   0.286   2.650   0.113
   30SL       H  447   0.330   2.649   0.417
   30SL       H  448   0.242   2.772   0.325
   30SL       H  449   0.501   2.816   0.380
   30SL       H  450   0.444   2.847   0.213
   31SL       O  451   1.893   3.561   1.191
   31SL       S  452   1.831   3.452   1.262
   31SL       O  453   1.703   3.397   1.221
   31SL       C  454   1.949   3.320   1.277
   31SL       C  455   1.954   3.288   1.427
   31SL       C  456   1.941   3.422   1.499
   31SL       C  457   1.823   3.492   1.435
   31SL       H  458   1.918   3.234   1.217
   31SL       H  459   2.046   3.357   1.243
   31SL       H  460   2.046   3.236   1.454
   31SL       H  461   1.870   3.223   1.454
   31SL       H  462   2.033   3.481   1.484
   31SL       H  463   1.927   3.409   1.606
   31SL       H  464   1.826   3.601   1.448
   31SL       H  465   1.728   3.454   1.474
   32SL       O  466   0.397   0.660   3.436
   32SL       S  467   0.519   0.616   3.498
   32SL       O  468   0.531   0.485   3.561
   32SL       C  469   0.652   0.636   3.382
   32SL       C  470   0.757   0.718   3.455
   32SL       C  471   0.680   0.819   3.540
   32SL       C  472   0.574   0.740   3.613
   32SL       H  473   0.690   0.538   3.351
   32SL       H  474   0.614   0.690   3.295
   32SL       H  475   0.826   0.768   3.385
   32SL       H  476   0.817   0.654   3.521
   32SL       H  477   0.633   0.894   3.474
   32SL       H  478   0.745   0.873   3.609
   32SL       H  479   0.489   0.801   3.645
   32SL       H  480   0.617   0.689   3.700
   33SL       O  481   0.653   3.919   2.996
   33SL       S  482   0.773   3.846   3.032
   33SL       O  483   0.807   3.819   3.171
   33SL       C  484   0.775   3.693   2.941
   33SL       C  485   0.911   3.691   2.871
   33SL       C  486   0.939   3.835   2.829
   33SL       C  487   0.913   3.920   2.951
   33SL       H  488   0.761   3.608   3.009
   33SL       H  489   0.694   3.695   2.868
   33SL       H  490   0.910   3.623   2.786
   33SL       H  491   0.988   3.657   2.941
   33SL       H  492   0.870   3.863   2.748
   33SL       H  493   1.041   3.847   2.792
   33SL       H  494   0.891   4.024   2.926
   33SL       H  495   0.998   3.916   3.021
   34SL       O  496   0.983   2.430   2.624
   34SL       S  497   1.098   2.368   2.562
   34SL       O  498   1.157   2.420   2.440
   34SL       C  499   1.226   2.352   2.685
   34SL       C  500   1.266   2.204   2.682
   34SL       C  501   1.136   2.126   2.658
   34SL       C  502   1.067   2.194   2.542
   34SL       H  503   1.310   2.418   2.662
   34SL       H  504   1.184   2.378   2.783
   34SL       H  505   1.315   2.174   2.775
   34SL       H  506   1.335   2.186   2.599
   34SL       H  507   1.073   2.133   2.749
   34SL       H  508   1.155   2.021   2.638
   34SL       H  509   0.959   2.176   2.540
   34SL       H  510   1.112   2.163   2.447
   35SL       O  511   3.678   2.293   0.839
   35SL       S  512   3.778   2.273   0.942
   35SL       O  513   3.743   2.218   1.072
   35SL       C  514   3.913   2.180   0.873
   35SL       C  515   4.037   2.262   0.904
   35SL       C  516   3.996   2.409   0.888
   35SL       C  517   3.868   2.425   0.967
   35SL       H  518   3.916   2.080   0.918
   35SL       H  519   3.897   2.171   0.765
   35SL       H  520   4.120   2.236   0.836
   35SL       H  521   4.070   2.244   1.007
   35SL       H  522   3.978   2.430   0.781
   35SL       H  523   4.074   2.477   0.922
   35SL       H  524   3.808   2.509   0.933
   35SL       H  525   3.889   2.434   1.074
   36SL       O  526   2.551   0.863   1.238
   36SL       S  527   2.447   0.804   1.158
   36SL       O  528   2.461   0.674   1.097
   36SL       C  529   2.295   0.808   1.251
   36SL       C  530   2.194   0.877   1.160
   36SL       C  531   2.271   0.986   1.086
   36SL       C  532   2.396   0.921   1.033
   36SL       H  533   2.265   0.706   1.278
   36SL       H  534   2.312   0.867   1.342
   36SL       H  535   2.110   0.918   1.217
   36SL       H  536   2.154   0.805   1.087
   36SL       H  537   2.297   1.066   1.158
   36SL       H  538   2.212   1.032   1.007
   36SL       H  539   2.477   0.992   1.014
   36SL       H  540   2.375   0.864   0.941
   37SL       O  541   1.602   1.309   2.317
   37SL       S  542   1.475   1.255   2.275
   37SL       O  543   1.384   1.330   2.190
   37SL       C  544   1.502   1.094   2.204
   37SL       C  545   1.408   1.001   2.280
   37SL       C  546   1.407   1.050   2.425
   37SL       C  547   1.385   1.199   2.418
   37SL       H  548   1.481   1.096   2.097
   37SL       H  549   1.606   1.066   2.221
   37SL       H  550   1.440   0.897   2.272
   37SL       H  551   1.306   1.008   2.238
   37SL       H  552   1.505   1.028   2.470
   37SL       H  553   1.331   1.000   2.484
   37SL       H  554   1.421   1.251   2.507
   37SL       H  555   1.279   1.222   2.402
   38SL       O  556   1.647   2.337   0.967
   38SL       S  557   1.681   2.425   0.858
   38SL       O  558   1.678   2.380   0.720
   38SL       C  559   1.585   2.574   0.872
   38SL       C  560   1.688   2.687   0.868
   38SL       C  561   1.810   2.637   0.945
   38SL       C  562   1.840   2.499   0.890
   38SL       H  563   1.513   2.581   0.791
   38SL       H  564   1.534   2.572   0.968
   38SL       H  565   1.648   2.779   0.912
   38SL       H  566   1.716   2.709   0.765
   38SL       H  567   1.785   2.630   1.052
   38SL       H  568   1.895   2.704   0.935
   38SL       H  569   1.897   2.437   0.959
   38SL       H  570   1.893   2.506   0.794
   39SL       O  571   2.584   2.798   2.320
   39SL       S  572   2.519   2.850   2.438
   39SL       O  573   2.536   2.987   2.481
   39SL       C  574   2.345   2.812   2.429
   39SL       C  575   2.313   2.740   2.560
   39SL       C  576   2.435   2.652   2.590
   39SL       C  577   2.556   2.742   2.576
   39SL       H  578   2.287   2.905   2.417
   39SL       H  579   2.329   2.747   2.343
   39SL       H  580   2.222   2.680   2.551
   39SL       H  581   2.299   2.813   2.640
   39SL       H  582   2.440   2.570   2.517
   39SL       H  583   2.429   2.608   2.690
   39SL       H  584   2.648   2.687   2.555
   39SL       H  585   2.569   2.805   2.664
   40SL       O  586   2.915   1.817   3.789
   40SL       S  587   2.832   1.809   3.671
   40SL       O  588   2.849   1.899   3.558
   40SL       C  589   2.832   1.641   3.612
   40SL       C  590   2.685   1.602   3.602
   40SL       C  591   2.615   1.668   3.721
   40SL       C  592   2.660   1.812   3.721
   40SL       H  593   2.884   1.635   3.516
   40SL       H  594   2.884   1.579   3.686
   40SL       H  595   2.672   1.493   3.603
   40SL       H  596   2.643   1.640   3.508
   40SL       H  597   2.647   1.618   3.814
   40SL       H  598   2.507   1.659   3.714
   40SL       H  599   2.651   1.860   3.819
   40SL       H  600   2.605   1.870   3.646
   41SL       O  601   3.057   0.417   3.794
   41SL       S  602   2.926   0.425   3.734
   41SL       O  603   2.907   0.465   3.596
   41SL       C  604   2.842   0.270   3.760
   41SL       C  605   2.709   0.308   3.825
   41SL       C  606   2.739   0.425   3.919
   41SL       C  607   2.820   0.524   3.837
   41SL       H  608   2.829   0.217   3.666
   41SL       H  609   2.902   0.210   3.829
   41SL       H  610   2.665   0.223   3.879
   41SL       H  611   2.637   0.340   3.748
   41SL       H  612   2.798   0.389   4.004
   41SL       H  613   2.648   0.470   3.958
   41SL       H  614   2.880   0.590   3.899
   41SL       H  615   2.755   0.583   3.772
   42SL       O  616   3.297   3.366   2.460
   42SL       S  617   3.282   3.270   2.353
   42SL       O  618   3.271   3.310   2.214
   42SL       C  619   3.413   3.149   2.368
   42SL       C  620   3.342   3.014   2.370
   42SL       C  621   3.213   3.035   2.450
   42SL       C  622   3.148   3.159   2.392
   42SL       H  623   3.482   3.159   2.284
   42SL       H  624   3.465   3.167   2.462
   42SL       H  625   3.405   2.937   2.415
   42SL       H  626   3.317   2.983   2.268
   42SL       H  627   3.238   3.051   2.556
   42SL       H  628   3.147   2.949   2.444
   42SL       H  629   3.080   3.208   2.462
   42SL       H  630   3.095   3.136   2.299
   43SL       O  631   3.038   2.936   1.723
   43SL       S  632   3.078   2.996   1.598
   43SL       O  633   3.026   2.950   1.471
   43SL       C  634   3.053   3.172   1.610
   43SL       C  635   3.188   3.234   1.572
   43SL       C  636   3.295   3.141   1.631
   43SL       C  637   3.256   3.001   1.590
   43SL       H  638   2.972   3.204   1.543
   43SL       H  639   3.028   3.196   1.713
   43SL       H  640   3.197   3.336   1.610
   43SL       H  641   3.198   3.237   1.463
   43SL       H  642   3.294   3.150   1.741
   43SL       H  643   3.395   3.167   1.596
   43SL       H  644   3.298   2.924   1.655
   43SL       H  645   3.285   2.981   1.486
   44SL       O  646   2.976   0.104   0.496
   44SL       S  647   2.969   0.187   0.614
   44SL       O  648   2.995   0.134   0.746
   44SL       C  649   3.070   0.331   0.587
   44SL       C  650   2.978   0.450   0.615
   44SL       C  651   2.840   0.411   0.561
   44SL       C  652   2.812   0.272   0.616
   44SL       H  653   3.157   0.329   0.654
   44SL       H  654   3.103   0.331   0.483
   44SL       H  655   3.015   0.541   0.568
   44SL       H  656   2.971   0.467   0.724
   44SL       H  657   2.844   0.408   0.451
   44SL       H  658   2.763   0.482   0.590
   44SL       H  659   2.739   0.217   0.556
   44SL       H  660   2.778   0.277   0.720
   45SL       O  661   1.104   2.321   2.986
   45SL       S  662   1.044   2.406   3.086
   45SL       O  663   1.055   2.376   3.228
   45SL       C  664   1.099   2.573   3.058
   45SL       C  665   0.971   2.656   3.051
   45SL       C  666   0.868   2.569   2.978
   45SL       C  667   0.873   2.434   3.046
   45SL       H  668   1.165   2.606   3.140
   45SL       H  669   1.153   2.576   2.963
   45SL       H  670   0.987   2.751   2.998
   45SL       H  671   0.934   2.679   3.151
   45SL       H  672   0.898   2.559   2.872
   45SL       H  673   0.768   2.612   2.981
   45SL       H  674   0.837   2.352   2.982
   45SL       H  675   0.816   2.435   3.140
   46SL       O  676   0.643   1.637   2.709
   46SL       S  677   0.688   1.763   2.762
   46SL       O  678   0.619   1.830   2.870
   46SL       C  679   0.861   1.748   2.804
   46SL       C  680   0.930   1.863   2.731
   46SL       C  681   0.859   1.877   2.596
   46SL       C  682   0.711   1.878   2.627
   46SL       H  683   0.874   1.753   2.912
   46SL       H  684   0.897   1.652   2.767
   46SL       H  685   1.037   1.844   2.718
   46SL       H  686   0.918   1.956   2.788
   46SL       H  687   0.883   1.790   2.533
   46SL       H  688   0.890   1.967   2.543
   46SL       H  689   0.649   1.848   2.542
   46SL       H  690   0.679   1.977   2.663
   47SL       O  691   1.261   0.415   2.946
   47SL       S  692   1.351   0.462   2.843
   47SL       O  693   1.309   0.474   2.705
   47SL       C  694   1.421   0.618   2.896
   47SL       C  695   1.572   0.599   2.884
   47SL       C  696   1.600   0.455   2.927
   47SL       C  697   1.503   0.369   2.850
   47SL       H  698   1.384   0.699   2.832
   47SL       H  699   1.392   0.635   2.999
   47SL       H  700   1.626   0.671   2.947
   47SL       H  701   1.604   0.613   2.780
   47SL       H  702   1.582   0.445   3.035
   47SL       H  703   1.704   0.426   2.908
   47SL       H  704   1.484   0.272   2.898
   47SL       H  705   1.537   0.353   2.747
   48SL       O  706   2.714   3.492   1.761
   48SL       S  707   2.825   3.401   1.767
   48SL       O  708   2.820   3.269   1.705
   48SL       C  709   2.972   3.485   1.711
   48SL       C  710   3.074   3.466   1.823
   48SL       C  711   2.995   3.475   1.954
   48SL       C  712   2.877   3.382   1.937
   48SL       H  713   3.006   3.443   1.616
   48SL       H  714   2.947   3.591   1.698
   48SL       H  715   3.153   3.542   1.818
   48SL       H  716   3.121   3.368   1.814
   48SL       H  717   2.961   3.578   1.969
   48SL       H  718   3.056   3.447   2.040
   48SL       H  719   2.793   3.408   2.003
   48SL       H  720   2.906   3.278   1.952
   49SL       O  721   0.871   0.575   0.859
   49SL       S  722   0.760   0.493   0.815
   49SL       O  723   0.750   0.352   0.850
   49SL       C  724   0.608   0.574   0.858
   49SL       C  725   0.529   0.583   0.728
   49SL       C  726   0.631   0.610   0.618
   49SL       C  727   0.742   0.510   0.638
   49SL       H  728   0.556   0.518   0.936
   49SL       H  729   0.632   0.674   0.896
   49SL       H  730   0.452   0.661   0.733
   49SL       H  731   0.478   0.487   0.709
   49SL       H  732   0.670   0.713   0.630
   49SL       H  733   0.587   0.603   0.518
   49SL       H  734   0.837   0.541   0.594
   49SL       H  735   0.714   0.412   0.598
   50SL       O  736   2.019   3.091   1.621
   50SL       S  737   2.090   2.967   1.638
   50SL       O  738   2.146   2.895   1.526
   50SL       C  739   2.217   2.991   1.761
   50SL       C  740   2.193   2.881   1.864
   50SL       C  741   2.042   2.865   1.876
   50SL       C  742   1.990   2.855   1.734
   50SL       H  743   2.316   2.985   1.715
   50SL       H  744   2.202   3.090   1.806
   50SL       H  745   2.239   2.906   1.961
   50SL       H  746   2.237   2.786   1.829
   50SL       H  747   2.000   2.954   1.926
   50SL       H  748   2.014   2.778   1.935
   50SL       H  749   1.884   2.883   1.725
   50SL       H  750   2.005   2.754   1.694
   51SL       O  751   0.329   2.853   1.426
   51SL       S  752   0.376   2.743   1.346
   51SL       O  753   0.504   2.747   1.278
   51SL       C  754   0.367   2.594   1.444
   51SL       C  755   0.286   2.496   1.360
   51SL       C  756   0.178   2.579   1.290
   51SL       C  757   0.250   2.697   1.229
   51SL       H  758   0.468   2.558   1.466
   51SL       H  759   0.315   2.618   1.537
   51SL       H  760   0.243   2.417   1.421
   51SL       H  761   0.351   2.449   1.284
   51SL       H  762   0.105   2.613   1.365
   51SL       H  763   0.125   2.521   1.214
   51SL       H  764   0.184   2.783   1.211
   51SL       H  765   0.300   2.670   1.135
   52SL       O  766   2.194   0.965   3.461
   52SL       S  767   2.194   0.934   3.602
   52SL       O  768   2.282   1.003   3.695
   52SL       C  769   2.027   0.944   3.662
   52SL       C  770   2.002   0.810   3.731
   52SL       C  771   2.074   0.705   3.647
   52SL       C  772   2.213   0.758   3.624
   52SL       H  773   2.016   1.029   3.731
   52SL       H  774   1.960   0.957   3.577
   52SL       H  775   1.895   0.789   3.740
   52SL       H  776   2.044   0.811   3.833
   52SL       H  777   2.021   0.693   3.551
   52SL       H  778   2.075   0.607   3.696
   52SL       H  779   2.261   0.715   3.535
   52SL       H  780   2.277   0.742   3.711
   53SL       O  781   2.875   2.984   3.819
   53SL       S  782   2.786   2.935   3.717
   53SL       O  783   2.648   2.900   3.746
   53SL       C  784   2.789   3.048   3.580
   53SL       C  785   2.822   2.961   3.458
   53SL       C  786   2.921   2.856   3.506
   53SL       C  787   2.863   2.798   3.633
   53SL       H  788   2.693   3.099   3.570
   53SL       H  789   2.869   3.121   3.597
   53SL       H  790   2.862   3.021   3.376
   53SL       H  791   2.731   2.912   3.422
   53SL       H  792   3.018   2.905   3.528
   53SL       H  793   2.939   2.779   3.431
   53SL       H  794   2.939   2.752   3.698
   53SL       H  795   2.785   2.724   3.610
   54SL       O  796   0.106   2.729   2.803
   54SL       S  797   0.230   2.727   2.730
   54SL       O  798   0.355   2.685   2.792
   54SL       C  799   0.207   2.635   2.580
   54SL       C  800   0.253   2.728   2.468
   54SL       C  801   0.210   2.869   2.510
   54SL       C  802   0.255   2.886   2.653
   54SL       H  803   0.264   2.541   2.583
   54SL       H  804   0.100   2.613   2.570
   54SL       H  805   0.211   2.699   2.372
   54SL       H  806   0.363   2.724   2.460
   54SL       H  807   0.100   2.876   2.503
   54SL       H  808   0.252   2.945   2.445
   54SL       H  809   0.197   2.962   2.707
   54SL       H  810   0.361   2.909   2.658
   55SL       O  811   3.504   3.364   2.360
   55SL       S  812   3.594   3.456   2.294
   55SL       O  813   3.545   3.565   2.211
   55SL       C  814   3.708   3.521   2.414
   55SL       C  815   3.847   3.494   2.356
   55SL       C  816   3.838   3.358   2.287
   55SL       C  817   3.714   3.363   2.200
   55SL       H  818   3.689   3.627   2.431
   55SL       H  819   3.694   3.466   2.508
   55SL       H  820   3.923   3.495   2.434
   55SL       H  821   3.872   3.571   2.283
   55SL       H  822   3.828   3.279   2.364
   55SL       H  823   3.928   3.336   2.229
   55SL       H  824   3.674   3.264   2.177
   55SL       H  825   3.734   3.417   2.107
   56SL       O  826   1.345   3.191   4.038
   56SL       S  827   1.239   3.098   4.006
   56SL       O  828   1.229   2.968   4.070
   56SL       C  829   1.083   3.183   4.021
   56SL       C  830   1.013   3.160   3.888
   56SL       C  831   1.122   3.166   3.781
   56SL       C  832   1.233   3.076   3.829
   56SL       H  833   1.026   3.142   4.106
   56SL       H  834   1.103   3.289   4.037
   56SL       H  835   0.935   3.235   3.870
   56SL       H  836   0.965   3.061   3.886
   56SL       H  837   1.158   3.270   3.772
   56SL       H  838   1.085   3.136   3.683
   56SL       H  839   1.330   3.101   3.786
   56SL       H  840   1.209   2.971   3.810
   57SL       O  841   3.891   3.522   2.709
   57SL       S  842   3.890   3.648   2.779
   57SL       O  843   3.999   3.690   2.864
   57SL       C  844   3.855   3.777   2.661
   57SL       C  845   3.735   3.853   2.720
   57SL       C  846   3.646   3.747   2.784
   57SL       C  847   3.737   3.662   2.870
   57SL       H  848   3.942   3.841   2.648
   57SL       H  849   3.828   3.731   2.566
   57SL       H  850   3.682   3.909   2.642
   57SL       H  851   3.770   3.924   2.796
   57SL       H  852   3.600   3.685   2.705
   57SL       H  853   3.566   3.792   2.843
   57SL       H  854   3.697   3.562   2.890
   57SL       H  855   3.760   3.712   2.965
   58SL       O  856   1.095   0.468   3.928
   58SL       S  857   1.059   0.413   3.800
   58SL       O  858   1.158   0.369   3.704
   58SL       C  859   0.941   0.281   3.826
   58SL       C  860   0.822   0.316   3.737
   58SL       C  861   0.808   0.468   3.744
   58SL       C  862   0.946   0.524   3.719
   58SL       H  863   0.986   0.185   3.800
   58SL       H  864   0.913   0.281   3.931
   58SL       H  865   0.731   0.265   3.771
   58SL       H  866   0.842   0.285   3.634
   58SL       H  867   0.773   0.497   3.844
   58SL       H  868   0.735   0.505   3.671
   58SL       H  869   0.959   0.625   3.759
   58SL       H  870   0.969   0.523   3.612
   59SL       O  871   0.418   0.100   3.530
   59SL       S  872   0.389   0.229   3.472
   59SL       O  873   0.361   0.346   3.553
   59SL       C  874   0.518   0.268   3.355
   59SL       C  875   0.446   0.300   3.225
   59SL       C  876   0.328   0.202   3.217
   59SL       C  877   0.259   0.210   3.351
   59SL       H  878   0.577   0.353   3.392
   59SL       H  879   0.582   0.180   3.344
   59SL       H  880   0.513   0.289   3.139
   59SL       H  881   0.408   0.403   3.226
   59SL       H  882   0.366   0.100   3.200
   59SL       H  883   0.260   0.227   3.135
   59SL       H  884   0.200   0.121   3.374
   59SL       H  885   0.195   0.299   3.357
   60SL       O  886   2.082   2.278   2.605
   60SL       S  887   2.098   2.165   2.516
   60SL       O  888   2.097   2.181   2.372
   60SL       C  889   2.245   2.076   2.564
   60SL       C  890   2.199   1.931   2.583
   60SL       C  891   2.059   1.939   2.645
   60SL       C  892   1.982   2.038   2.561
   60SL       H  893   2.322   2.085   2.487
   60SL       H  894   2.281   2.117   2.658
   60SL       H  895   2.268   1.875   2.646
   60SL       H  896   2.193   1.881   2.485
   60SL       H  897   2.068   1.976   2.749
   60SL       H  898   2.011   1.842   2.648
   60SL       H  899   1.897   2.083   2.615
   60SL       H  900   1.946   1.991   2.468
   61SL       O  901   1.239   0.872   1.098
   61SL       S  902   1.185   0.792   0.992
   61SL       O  903   1.200   0.828   0.852
   61SL       C  904   1.239   0.623   1.014
   61SL       C  905   1.112   0.540   1.013
   61SL       C  906   1.006   0.623   1.086
   61SL       C  907   1.012   0.761   1.024
   61SL       H  908   1.309   0.595   0.934
   61SL       H  909   1.290   0.616   1.111
   61SL       H  910   1.127   0.443   1.062
   61SL       H  911   1.080   0.521   0.910
   61SL       H  912   1.031   0.628   1.193
   61SL       H  913   0.907   0.579   1.077
   61SL       H  914   0.973   0.839   1.090
   61SL       H  915   0.959   0.764   0.929
   62SL       O  916   1.968   2.708   1.147
   62SL       S  917   2.001   2.663   1.281
   62SL       O  918   2.118   2.711   1.351
   62SL       C  919   1.858   2.685   1.385
   62SL       C  920   1.834   2.548   1.448
   62SL       C  921   1.867   2.445   1.341
   62SL       C  922   2.001   2.485   1.284
   62SL       H  923   1.877   2.763   1.459
   62SL       H  924   1.774   2.713   1.321
   62SL       H  925   1.731   2.538   1.484
   62SL       H  926   1.901   2.534   1.534
   62SL       H  927   1.790   2.449   1.262
   62SL       H  928   1.868   2.343   1.380
   62SL       H  929   2.018   2.446   1.183
   62SL       H  930   2.083   2.453   1.350
   63SL       O  931   2.221   1.557   3.915
   63SL       S  932   2.192   1.677   3.989
   63SL       O  933   2.118   1.674   4.114
   63SL       C  934   2.344   1.766   4.014
   63SL       C  935   2.316   1.907   3.961
   63SL       C  936   2.228   1.889   3.838
   63SL       C  937   2.116   1.796   3.880
   63SL       H  938   2.371   1.766   4.120
   63SL       H  939   2.422   1.718   3.955
   63SL       H  940   2.409   1.960   3.937
   63SL       H  941   2.263   1.966   4.037
   63SL       H  942   2.287   1.844   3.757
   63SL       H  943   2.189   1.985   3.802
   63SL       H  944   2.070   1.744   3.795
   63SL       H  945   2.040   1.849   3.937
   64SL       O  946   2.722   2.074   1.433
   64SL       S  947   2.738   2.193   1.513
   64SL       O  948   2.711   2.325   1.460
   64SL       C  949   2.646   2.172   1.664
   64SL       C  950   2.747   2.199   1.776
   64SL       C  951   2.880   2.141   1.728
   64SL       C  952   2.900   2.192   1.587
   64SL       H  953   2.561   2.240   1.667
   64SL       H  954   2.611   2.068   1.669
   64SL       H  955   2.715   2.155   1.871
   64SL       H  956   2.757   2.307   1.791
   64SL       H  957   2.873   2.031   1.728
   64SL       H  958   2.962   2.169   1.794
   64SL       H  959   2.967   2.129   1.528
   64SL       H  960   2.937   2.295   1.588
   65SL       O  961   3.712   0.335   2.925
   65SL       S  962   3.632   0.230   2.865
   65SL       O  963   3.618   0.100   2.927
   65SL       C  964   3.470   0.296   2.831
   65SL       C  965   3.445   0.267   2.684
   65SL       C  966   3.580   0.286   2.614
   65SL       C  967   3.681   0.209   2.695
   65SL       H  968   3.396   0.249   2.897
   65SL       H  969   3.472   0.404   2.849
   65SL       H  970   3.368   0.332   2.642
   65SL       H  971   3.412   0.163   2.671
   65SL       H  972   3.605   0.393   2.613
   65SL       H  973   3.577   0.252   2.510
   65SL       H  974   3.783   0.244   2.681
   65SL       H  975   3.676   0.102   2.673
   66SL       O  976   0.950   3.021   0.547
   66SL       S  977   1.059   3.115   0.547
   66SL       O  978   1.172   3.102   0.636
   66SL       C  979   1.119   3.131   0.380
   66SL       C  980   1.116   3.281   0.351
   66SL       C  981   0.991   3.335   0.420
   66SL       C  982   0.994   3.280   0.561
   66SL       H  983   1.219   3.089   0.371
   66SL       H  984   1.050   3.078   0.313
   66SL       H  985   1.115   3.301   0.243
   66SL       H  986   1.205   3.330   0.393
   66SL       H  987   0.901   3.298   0.367
   66SL       H  988   0.987   3.444   0.419
   66SL       H  989   0.895   3.277   0.608
   66SL       H  990   1.062   3.338   0.624
   67SL       O  991   3.488   1.812   2.858
   67SL       S  992   3.433   1.847   2.987
   67SL       O  993   3.473   1.966   3.059
   67SL       C  994   3.255   1.844   2.975
   67SL       C  995   3.209   1.751   3.087
   67SL       C  996   3.312   1.639   3.094
   67SL       C  997   3.448   1.707   3.096
   67SL       H  998   3.215   1.945   2.985
   67SL       H  999   3.228   1.803   2.877
   67SL       H 1000   3.108   1.712   3.069
   67SL       H 1001   3.207   1.805   3.183
   67SL       H 1002   3.303   1.575   3.005
   67SL       H 1003   3.298   1.575   3.182
   67SL       H 1004   3.528   1.641   3.061
   67SL       H 1005   3.471   1.744   3.196
   68SL       O 1006   1.877   2.064   1.570
   68SL       S 1007   1.785   2.034   1.462
   68SL       O 1008   1.796   2.098   1.332
   68SL       C 1009   1.780   1.857   1.440
   68SL       C 1010   1.633   1.820   1.447
   68SL       C 1011   1.572   1.911   1.554
   68SL       C 1012   1.618   2.051   1.521
   68SL       H 1013   1.825   1.830   1.344
   68SL       H 1014   1.836   1.811   1.521
   68SL       H 1015   1.619   1.714   1.472
   68SL       H 1016   1.584   1.839   1.351
   68SL       H 1017   1.610   1.881   1.654
   68SL       H 1018   1.463   1.904   1.557
   68SL       H 1019   1.616   2.118   1.608
   68SL       H 1020   1.558   2.094   1.440
   69SL       O 1021   0.383   2.292   3.992
   69SL       S 1022   0.442   2.187   3.913
   69SL       O 1023   0.366   2.114   3.814
   69SL       C 1024   0.591   2.249   3.838
   69SL       C 1025   0.700   2.150   3.877
   69SL       C 1026   0.668   2.107   4.021
   69SL       C 1027   0.522   2.070   4.022
   69SL       H 1028   0.578   2.257   3.729
   69SL       H 1029   0.612   2.348   3.880
   69SL       H 1030   0.800   2.194   3.869
   69SL       H 1031   0.697   2.062   3.811
   69SL       H 1032   0.687   2.192   4.089
   69SL       H 1033   0.731   2.024   4.053
   69SL       H 1034   0.477   2.076   4.121
   69SL       H 1035   0.506   1.970   3.980
   70SL       O 1036   0.175   3.831   3.011
   70SL       S 1037   0.280   3.878   3.098
   70SL       O 1038   0.416   3.897   3.050
   70SL       C 1039   0.225   4.028   3.177
   70SL       C 1040   0.245   4.003   3.326
   70SL       C 1041   0.209   3.857   3.350
   70SL       C 1042   0.284   3.778   3.245
   70SL       H 1043   0.283   4.113   3.141
   70SL       H 1044   0.119   4.042   3.153
   70SL       H 1045   0.182   4.070   3.386
   70SL       H 1046   0.349   4.020   3.354
   70SL       H 1047   0.100   3.843   3.337
   70SL       H 1048   0.234   3.824   3.451
   70SL       H 1049   0.239   3.680   3.224
   70SL       H 1050   0.389   3.765   3.273
   71SL       O 1051   4.120   0.968   1.880
   71SL       S 1052   3.993   1.035   1.877
   71SL       O 1053   3.873   0.975   1.932
   71SL       C 1054   4.013   1.198   1.947
   71SL       C 1055   3.958   1.294   1.841
   71SL       C 1056   3.998   1.235   1.706
   71SL       C 1057   3.958   1.089   1.710
   71SL       H 1058   3.960   1.205   2.042
   71SL       H 1059   4.120   1.215   1.962
   71SL       H 1060   3.997   1.395   1.855
   71SL       H 1061   3.849   1.299   1.849
   71SL       H 1062   4.107   1.245   1.693
   71SL       H 1063   3.949   1.287   1.623
   71SL       H 1064   4.015   1.028   1.640
   71SL       H 1065   3.851   1.077   1.693
   72SL       O 1066   3.821   2.033   3.157
   72SL       S 1067   3.890   1.908   3.180
   72SL       O 1068   3.910   1.855   3.313
   72SL       C 1069   3.815   1.783   3.078
   72SL       C 1070   3.930   1.722   2.999
   72SL       C 1071   4.024   1.838   2.965
   72SL       C 1072   4.047   1.913   3.095
   72SL       H 1073   3.764   1.709   3.140
   72SL       H 1074   3.743   1.831   3.011
   72SL       H 1075   3.895   1.671   2.908
   72SL       H 1076   3.983   1.648   3.060
   72SL       H 1077   3.976   1.903   2.891
   72SL       H 1078   4.118   1.803   2.922
   72SL       H 1079   4.077   2.016   3.079
   72SL       H 1080   4.120   1.861   3.158
   73SL       O 1081   1.520   2.253   2.701
   73SL       S 1082   1.627   2.163   2.665
   73SL       O 1083   1.716   2.190   2.553
   73SL       C 1084   1.725   2.131   2.810
   73SL       C 1085   1.731   1.979   2.822
   73SL       C 1086   1.593   1.929   2.779
   73SL       C 1087   1.562   1.998   2.648
   73SL       H 1088   1.824   2.176   2.800
   73SL       H 1089   1.674   2.175   2.896
   73SL       H 1090   1.755   1.948   2.924
   73SL       H 1091   1.807   1.939   2.755
   73SL       H 1092   1.518   1.956   2.855
   73SL       H 1093   1.591   1.820   2.768
   73SL       H 1094   1.455   2.003   2.626
   73SL       H 1095   1.614   1.950   2.564
   74SL       O 1096   2.653   0.535   1.180
   74SL       S 1097   2.609   0.437   1.083
   74SL       O 1098   2.566   0.476   0.950
   74SL       C 1099   2.735   0.311   1.069
   74SL       C 1100   2.661   0.180   1.091
   74SL       C 1101   2.556   0.207   1.199
   74SL       C 1102   2.484   0.333   1.155
   74SL       H 1103   2.782   0.317   0.970
   74SL       H 1104   2.809   0.328   1.147
   74SL       H 1105   2.730   0.100   1.121
   74SL       H 1106   2.611   0.148   0.998
   74SL       H 1107   2.607   0.224   1.295
   74SL       H 1108   2.487   0.124   1.211
   74SL       H 1109   2.436   0.386   1.239
   74SL       H 1110   2.410   0.311   1.078
   75SL       O 1111   3.098   2.083   1.996
   75SL       S 1112   3.122   1.942   2.011
   75SL       O 1113   3.253   1.890   2.046
   75SL       C 1114   3.002   1.875   2.124
   75SL       C 1115   2.937   1.758   2.049
   75SL       C 1116   2.927   1.803   1.903
   75SL       C 1117   3.063   1.857   1.866
   75SL       H 1118   3.050   1.843   2.217
   75SL       H 1119   2.928   1.953   2.145
   75SL       H 1120   2.839   1.733   2.090
   75SL       H 1121   3.001   1.669   2.056
   75SL       H 1122   2.851   1.882   1.894
   75SL       H 1123   2.897   1.721   1.837
   75SL       H 1124   3.060   1.926   1.781
   75SL       H 1125   3.133   1.775   1.844
   76SL       O 1126   1.917   1.143   3.890
   76SL       S 1127   2.012   1.246   3.922
   76SL       O 1128   1.998   1.331   4.039
   76SL       C 1129   2.175   1.174   3.922
   76SL       C 1130   2.258   1.261   3.827
   76SL       C 1131   2.164   1.299   3.713
   76SL       C 1132   2.037   1.349   3.779
   76SL       H 1133   2.216   1.173   4.024
   76SL       H 1134   2.167   1.072   3.884
   76SL       H 1135   2.346   1.207   3.791
   76SL       H 1136   2.292   1.351   3.879
   76SL       H 1137   2.142   1.210   3.652
   76SL       H 1138   2.208   1.374   3.647
   76SL       H 1139   1.949   1.343   3.713
   76SL       H 1140   2.049   1.453   3.814
   77SL       O 1141   1.430   2.476   3.760
   77SL       S 1142   1.560   2.481   3.823
   77SL       O 1143   1.581   2.433   3.959
   77SL       C 1144   1.679   2.403   3.716
   77SL       C 1145   1.790   2.506   3.698
   77SL       C 1146   1.721   2.642   3.692
   77SL       C 1147   1.626   2.646   3.809
   77SL       H 1148   1.715   2.309   3.760
   77SL       H 1149   1.630   2.382   3.620
   77SL       H 1150   1.849   2.486   3.608
   77SL       H 1151   1.858   2.503   3.784
   77SL       H 1152   1.665   2.650   3.597
   77SL       H 1153   1.793   2.724   3.695
   77SL       H 1154   1.544   2.717   3.795
   77SL       H 1155   1.679   2.669   3.902
   78SL       O 1156   3.178   0.962   1.300
   78SL       S 1157   3.150   1.016   1.169
   78SL       O 1158   3.103   1.152   1.151
   78SL       C 1159   3.292   0.989   1.065
   78SL       C 1160   3.237   0.917   0.941
   78SL       C 1161   3.129   0.822   0.992
   78SL       C 1162   3.040   0.905   1.083
   78SL       H 1163   3.339   1.084   1.040
   78SL       H 1164   3.362   0.925   1.119
   78SL       H 1165   3.316   0.864   0.888
   78SL       H 1166   3.193   0.990   0.872
   78SL       H 1167   3.176   0.740   1.049
   78SL       H 1168   3.072   0.778   0.910
   78SL       H 1169   2.985   0.844   1.155
   78SL       H 1170   2.970   0.966   1.025
   79SL       O 1171   3.794   0.138   1.173
   79SL       S 1172   3.820   0.240   1.073
   79SL       O 1173   3.825   0.208   0.931
   79SL       C 1174   3.706   0.374   1.098
   79SL       C 1175   3.793   0.499   1.108
   79SL       C 1176   3.919   0.456   1.185
   79SL       C 1177   3.967   0.330   1.118
   79SL       H 1178   3.635   0.379   1.015
   79SL       H 1179   3.652   0.356   1.191
   79SL       H 1180   3.741   0.580   1.159
   79SL       H 1181   3.821   0.534   1.008
   79SL       H 1182   3.892   0.436   1.290
   79SL       H 1183   3.995   0.534   1.184
   79SL       H 1184   4.029   0.268   1.183
   79SL       H 1185   4.022   0.352   1.025
   80SL       O 1186   1.987   2.062   1.879
   80SL       S 1187   2.006   2.111   2.013
   80SL       O 1188   2.092   2.225   2.041
   80SL       C 1189   1.846   2.139   2.087
   80SL       C 1190   1.849   2.061   2.218
   80SL       C 1191   1.927   1.933   2.190
   80SL       C 1192   2.054   1.976   2.119
   80SL       H 1193   1.830   2.246   2.102
   80SL       H 1194   1.770   2.099   2.019
   80SL       H 1195   1.748   2.040   2.254
   80SL       H 1196   1.901   2.119   2.295
   80SL       H 1197   1.867   1.868   2.124
   80SL       H 1198   1.948   1.877   2.281
   80SL       H 1199   2.098   1.896   2.059
   80SL       H 1200   2.127   2.013   2.191
   81SL       O 1201   1.170   1.073   3.519
   81SL       S 1202   1.311   1.052   3.502
   81SL       O 1203   1.364   0.932   3.439
   81SL       C 1204   1.381   1.195   3.421
   81SL       C 1205   1.496   1.239   3.511
   81SL       C 1206   1.449   1.216   3.655
   81SL       C 1207   1.393   1.075   3.658
   81SL       H 1208   1.414   1.169   3.320
   81SL       H 1209   1.304   1.272   3.416
   81SL       H 1210   1.522   1.344   3.493
   81SL       H 1211   1.585   1.178   3.491
   81SL       H 1212   1.369   1.289   3.679
   81SL       H 1213   1.529   1.230   3.727
   81SL       H 1214   1.322   1.060   3.740
   81SL       H 1215   1.474   1.002   3.665
   82SL       O 1216   2.813   1.235   3.286
   82SL       S 1217   2.862   1.346   3.364
   82SL       O 1218   2.774   1.451   3.412
   82SL       C 1219   2.957   1.282   3.500
   82SL       C 1220   3.092   1.352   3.491
   82SL       C 1221   3.124   1.365   3.342
   82SL       C 1222   2.999   1.421   3.278
   82SL       H 1223   2.905   1.302   3.595
   82SL       H 1224   2.968   1.174   3.486
   82SL       H 1225   3.170   1.297   3.545
   82SL       H 1226   3.085   1.452   3.536
   82SL       H 1227   3.146   1.265   3.301
   82SL       H 1228   3.211   1.428   3.324
   82SL       H 1229   2.992   1.399   3.171
   82SL       H 1230   2.993   1.530   3.293
   83SL       O 1231   0.774   2.628   2.089
   83SL       S 1232   0.775   2.608   1.946
   83SL       O 1233   0.695   2.505   1.882
   83SL       C 1234   0.741   2.765   1.868
   83SL       C 1235   0.856   2.785   1.769
   83SL       C 1236   0.981   2.730   1.838
   83SL       C 1237   0.943   2.593   1.890
   83SL       H 1238   0.644   2.762   1.818
   83SL       H 1239   0.742   2.842   1.945
   83SL       H 1240   0.868   2.890   1.742
   83SL       H 1241   0.837   2.728   1.677
   83SL       H 1242   1.009   2.797   1.921
   83SL       H 1243   1.066   2.725   1.770
   83SL       H 1244   1.007   2.560   1.973
   83SL       H 1245   0.945   2.519   1.810
   84SL       O 1246   1.420   2.945   2.097
   84SL       S 1247   1.417   2.801   2.083
   84SL       O 1248   1.487   2.732   1.977
   84SL       C 1249   1.462   2.728   2.239
   84SL       C 1250   1.348   2.631   2.272
   84SL       C 1251   1.220   2.699   2.225
   84SL       C 1252   1.247   2.746   2.084
   84SL       H 1253   1.559   2.677   2.231
   84SL       H 1254   1.468   2.807   2.314
   84SL       H 1255   1.345   2.608   2.379
   84SL       H 1256   1.362   2.537   2.218
   84SL       H 1257   1.198   2.785   2.291
   84SL       H 1258   1.134   2.632   2.229
   84SL       H 1259   1.182   2.829   2.053
   84SL       H 1260   1.238   2.664   2.013
   85SL       O 1261   3.972   2.366   1.266
   85SL       S 1262   4.006   2.370   1.406
   85SL       O 1263   4.120   2.298   1.459
   85SL       C 1264   4.016   2.541   1.457
   85SL       C 1265   3.924   2.552   1.578
   85SL       C 1266   3.804   2.461   1.548
   85SL       C 1267   3.862   2.329   1.503
   85SL       H 1268   4.120   2.567   1.481
   85SL       H 1269   3.980   2.603   1.375
   85SL       H 1270   3.893   2.655   1.595
   85SL       H 1271   3.975   2.516   1.668
   85SL       H 1272   3.744   2.506   1.467
   85SL       H 1273   3.739   2.450   1.635
   85SL       H 1274   3.792   2.271   1.442
   85SL       H 1275   3.895   2.269   1.588
   86SL       O 1276   1.104   2.800   3.223
   86SL       S 1277   1.190   2.853   3.120
   86SL       O 1278   1.247   2.768   3.017
   86SL       C 1279   1.108   2.991   3.043
   86SL       C 1280   1.208   3.106   3.052
   86SL       C 1281   1.278   3.092   3.187
   86SL       C 1282   1.321   2.947   3.196
   86SL       H 1283   1.082   2.967   2.940
   86SL       H 1284   1.018   3.014   3.100
   86SL       H 1285   1.158   3.203   3.042
   86SL       H 1286   1.282   3.098   2.971
   86SL       H 1287   1.206   3.115   3.268
   86SL       H 1288   1.363   3.160   3.197
   86SL       H 1289   1.335   2.913   3.300
   86SL       H 1290   1.413   2.929   3.139
   87SL       O 1291   2.155   3.155   1.078
   87SL       S 1292   2.276   3.130   1.152
   87SL       O 1293   2.288   3.159   1.293
   87SL       C 1294   2.326   2.961   1.124
   87SL       C 1295   2.470   2.969   1.076
   87SL       C 1296   2.478   3.093   0.987
   87SL       C 1297   2.413   3.205   1.066
   87SL       H 1298   2.315   2.902   1.216
   87SL       H 1299   2.261   2.919   1.046
   87SL       H 1300   2.499   2.879   1.021
   87SL       H 1301   2.538   2.980   1.161
   87SL       H 1302   2.423   3.075   0.894
   87SL       H 1303   2.581   3.118   0.960
   87SL       H 1304   2.377   3.286   1.003
   87SL       H 1305   2.482   3.245   1.142
   88SL       O 1306   1.066   0.661   2.129
   88SL       S 1307   0.966   0.610   2.038
   88SL       O 1308   0.986   0.488   1.962
   88SL       C 1309   0.810   0.600   2.124
   88SL       C 1310   0.711   0.677   2.038
   88SL       C 1311   0.789   0.797   1.981
   88SL       C 1312   0.918   0.740   1.926
   88SL       H 1313   0.781   0.495   2.137
   88SL       H 1314   0.822   0.647   2.222
   88SL       H 1315   0.624   0.709   2.095
   88SL       H 1316   0.676   0.614   1.955
   88SL       H 1317   0.811   0.867   2.063
   88SL       H 1318   0.732   0.850   1.905
   88SL       H 1319   0.998   0.814   1.919
   88SL       H 1320   0.901   0.695   1.827
   89SL       O 1321   0.986   0.513   1.737
   89SL       S 1322   0.937   0.379   1.714
   89SL       O 1323   1.027   0.265   1.707
   89SL       C 1324   0.809   0.344   1.833
   89SL       C 1325   0.689   0.299   1.750
   89SL       C 1326   0.690   0.385   1.623
   89SL       C 1327   0.832   0.379   1.570
   89SL       H 1328   0.842   0.267   1.903
   89SL       H 1329   0.786   0.436   1.887
   89SL       H 1330   0.595   0.310   1.805
   89SL       H 1331   0.700   0.193   1.722
   89SL       H 1332   0.664   0.489   1.650
   89SL       H 1333   0.618   0.350   1.549
   89SL       H 1334   0.857   0.464   1.506
   89SL       H 1335   0.850   0.285   1.516
   90SL       O 1336   2.926   1.973   0.234
   90SL       S 1337   2.979   2.085   0.308
   90SL       O 1338   3.037   2.068   0.440
   90SL       C 1339   3.094   2.173   0.205
   90SL       C 1340   3.046   2.318   0.207
   90SL       C 1341   2.893   2.312   0.208
   90SL       C 1342   2.856   2.214   0.316
   90SL       H 1343   3.196   2.162   0.243
   90SL       H 1344   3.087   2.132   0.104
   90SL       H 1345   3.084   2.374   0.121
   90SL       H 1346   3.081   2.368   0.298
   90SL       H 1347   2.858   2.276   0.109
   90SL       H 1348   2.849   2.410   0.225
   90SL       H 1349   2.756   2.170   0.302
   90SL       H 1350   2.862   2.260   0.415
   91SL       O 1351   3.396   2.897   3.136
   91SL       S 1352   3.422   2.953   3.267
   91SL       O 1353   3.504   2.883   3.364
   91SL       C 1354   3.484   3.119   3.247
   91SL       C 1355   3.393   3.205   3.334
   91SL       C 1356   3.253   3.147   3.320
   91SL       C 1357   3.268   2.998   3.343
   91SL       H 1358   3.589   3.124   3.277
   91SL       H 1359   3.474   3.146   3.141
   91SL       H 1360   3.396   3.310   3.303
   91SL       H 1361   3.426   3.200   3.439
   91SL       H 1362   3.215   3.166   3.219
   91SL       H 1363   3.183   3.191   3.391
   91SL       H 1364   3.186   2.939   3.298
   91SL       H 1365   3.275   2.975   3.450
   92SL       O 1366   2.847   1.074   2.204
   92SL       S 1367   2.759   1.049   2.316
   92SL       O 1368   2.809   1.032   2.451
   92SL       C 1369   2.631   1.173   2.317
   92SL       C 1370   2.500   1.095   2.319
   92SL       C 1371   2.521   0.972   2.231
   92SL       C 1372   2.652   0.911   2.276
   92SL       H 1373   2.643   1.238   2.404
   92SL       H 1374   2.640   1.231   2.225
   92SL       H 1375   2.416   1.156   2.284
   92SL       H 1376   2.477   1.063   2.422
   92SL       H 1377   2.529   1.004   2.126
   92SL       H 1378   2.439   0.901   2.239
   92SL       H 1379   2.699   0.849   2.199
   92SL       H 1380   2.639   0.852   2.368
   93SL       O 1381   0.945   3.240   3.082
   93SL       S 1382   0.930   3.220   2.940
   93SL       O 1383   1.037   3.166   2.858
   93SL       C 1384   0.781   3.125   2.912
   93SL       C 1385   0.701   3.208   2.812
   93SL       C 1386   0.722   3.354   2.850
   93SL       C 1387   0.872   3.371   2.865
   93SL       H 1388   0.807   3.026   2.874
   93SL       H 1389   0.728   3.117   3.007
   93SL       H 1390   0.594   3.180   2.814
   93SL       H 1391   0.738   3.190   2.710
   93SL       H 1392   0.671   3.375   2.945
   93SL       H 1393   0.681   3.422   2.775
   93SL       H 1394   0.898   3.456   2.929
   93SL       H 1395   0.921   3.381   2.768
   94SL       O 1396   1.904   0.983   3.082
   94SL       S 1397   1.822   0.883   3.147
   94SL       O 1398   1.810   0.748   3.094
   94SL       C 1399   1.869   0.874   3.318
   94SL       C 1400   1.738   0.892   3.396
   94SL       C 1401   1.656   0.995   3.318
   94SL       C 1402   1.659   0.949   3.174
   94SL       H 1403   1.917   0.778   3.340
   94SL       H 1404   1.938   0.956   3.339
   94SL       H 1405   1.757   0.925   3.499
   94SL       H 1406   1.684   0.797   3.400
   94SL       H 1407   1.704   1.094   3.327
   94SL       H 1408   1.555   1.003   3.356
   94SL       H 1409   1.640   1.030   3.103
   94SL       H 1410   1.587   0.868   3.157
   95SL       O 1411   0.779   2.564   3.902
   95SL       S 1412   0.875   2.664   3.862
   95SL       O 1413   0.878   2.718   3.727
   95SL       C 1414   0.868   2.800   3.977
   95SL       C 1415   1.012   2.819   4.024
   95SL       C 1416   1.072   2.679   4.035
   95SL       C 1417   1.039   2.609   3.905
   95SL       H 1418   0.828   2.889   3.929
   95SL       H 1419   0.804   2.770   4.061
   95SL       H 1420   1.016   2.872   4.120
   95SL       H 1421   1.068   2.878   3.951
   95SL       H 1422   1.026   2.626   4.120
   95SL       H 1423   1.180   2.682   4.053
   95SL       H 1424   1.040   2.500   3.914
   95SL       H 1425   1.107   2.640   3.825
   96SL       O 1426   0.343   1.345   3.070
   96SL       S 1427   0.368   1.304   3.206
   96SL       O 1428   0.327   1.384   3.320
   96SL       C 1429   0.306   1.138   3.228
   96SL       C 1430   0.424   1.059   3.284
   96SL       C 1431   0.549   1.113   3.214
   96SL       C 1432   0.541   1.263   3.225
   96SL       H 1433   0.220   1.138   3.295
   96SL       H 1434   0.277   1.100   3.130
   96SL       H 1435   0.412   0.951   3.267
   96SL       H 1436   0.433   1.075   3.392
   96SL       H 1437   0.547   1.082   3.108
   96SL       H 1438   0.641   1.074   3.258
   96SL       H 1439   0.599   1.315   3.148
   96SL       H 1440   0.573   1.297   3.324
   97SL       O 1441   3.693   0.978   3.293
   97SL       S 1442   3.643   1.084   3.378
   97SL       O 1443   3.577   1.201   3.324
   97SL       C 1444   3.537   1.011   3.502
   97SL       C 1445   3.593   1.061   3.635
   97SL       C 1446   3.745   1.064   3.619
   97SL       C 1447   3.772   1.136   3.489
   97SL       H 1448   3.434   1.041   3.486
   97SL       H 1449   3.547   0.902   3.495
   97SL       H 1450   3.562   0.996   3.718
   97SL       H 1451   3.556   1.162   3.655
   97SL       H 1452   3.783   0.961   3.615
   97SL       H 1453   3.793   1.114   3.704
   97SL       H 1454   3.869   1.111   3.446
   97SL       H 1455   3.763   1.244   3.501
   98SL       O 1456   1.928   3.038   0.438
   98SL       S 1457   1.905   2.946   0.548
   98SL       O 1458   1.835   2.988   0.668
   98SL       C 1459   1.828   2.799   0.483
   98SL       C 1460   1.915   2.684   0.532
   98SL       C 1461   2.059   2.734   0.526
   98SL       C 1462   2.059   2.870   0.593
   98SL       H 1463   1.725   2.792   0.519
   98SL       H 1464   1.828   2.805   0.374
   98SL       H 1465   1.901   2.594   0.471
   98SL       H 1466   1.889   2.659   0.636
   98SL       H 1467   2.089   2.745   0.420
   98SL       H 1468   2.129   2.665   0.573
   98SL       H 1469   2.143   2.933   0.562
   98SL       H 1470   2.060   2.859   0.702
   99SL       O 1471   1.416   2.389   0.900
   99SL       S 1472   1.347   2.367   1.025
   99SL       O 1473   1.340   2.470   1.127
   99SL       C 1474   1.183   2.308   0.990
   99SL       C 1475   1.169   2.179   1.071
   99SL       C 1476   1.306   2.110   1.064
   99SL       C 1477   1.408   2.217   1.099
   99SL       H 1478   1.109   2.383   1.019
   99SL       H 1479   1.176   2.288   0.883
   99SL       H 1480   1.090   2.115   1.030
   99SL       H 1481   1.145   2.202   1.175
   99SL       H 1482   1.323   2.074   0.961
   99SL       H 1483   1.312   2.025   1.131
   99SL       H 1484   1.508   2.194   1.060
   99SL       H 1485   1.413   2.232   1.207
  100SL       O 1486   1.392   3.657   1.796
  100SL       S 1487   1.475   3.696   1.684
  100SL       O 1488   1.450   3.648   1.550
  100SL       C 1489   1.484   3.874   1.682
  100SL       C 1490   1.634   3.906   1.679
  100SL       C 1491   1.700   3.801   1.769
  100SL       C 1492   1.646   3.667   1.725
  100SL       H 1493   1.432   3.914   1.594
  100SL       H 1494   1.438   3.912   1.773
  100SL       H 1495   1.654   4.008   1.714
  100SL       H 1496   1.673   3.897   1.577
  100SL       H 1497   1.673   3.821   1.874
  100SL       H 1498   1.809   3.805   1.762
  100SL       H 1499   1.653   3.591   1.803
  100SL       H 1500   1.696   3.632   1.634
  101SL       O 1501   3.424   2.712   1.783
  101SL       S 1502   3.545   2.767   1.840
  101SL       O 1503   3.566   2.910   1.851
  101SL       C 1504   3.571   2.692   2.000
  101SL       C 1505   3.713   2.636   1.995
  101SL       C 1506   3.732   2.583   1.853
  101SL       C 1507   3.686   2.693   1.760
  101SL       H 1508   3.557   2.766   2.079
  101SL       H 1509   3.498   2.612   2.012
  101SL       H 1510   3.728   2.558   2.070
  101SL       H 1511   3.785   2.716   2.014
  101SL       H 1512   3.670   2.493   1.839
  101SL       H 1513   3.836   2.555   1.834
  101SL       H 1514   3.657   2.656   1.661
  101SL       H 1515   3.763   2.771   1.750
  102SL       O 1516   0.649   3.857   2.726
  102SL       S 1517   0.603   3.967   2.644
  102SL       O 1518   0.539   4.083   2.701
  102SL       C 1519   0.738   4.020   2.540
  102SL       C 1520   0.682   4.017   2.398
  102SL       C 1521   0.591   3.895   2.391
  102SL       C 1522   0.501   3.903   2.513
  102SL       H 1523   0.771   4.120   2.570
  102SL       H 1524   0.820   3.949   2.551
  102SL       H 1525   0.762   4.011   2.324
  102SL       H 1526   0.624   4.108   2.379
  102SL       H 1527   0.652   3.803   2.396
  102SL       H 1528   0.533   3.892   2.299
  102SL       H 1529   0.460   3.806   2.542
  102SL       H 1530   0.419   3.974   2.497
  103SL       O 1531   1.784   2.376   2.883
  103SL       S 1532   1.786   2.458   2.764
  103SL       O 1533   1.805   2.401   2.632
  103SL       C 1534   1.640   2.560   2.763
  103SL       C 1535   1.692   2.703   2.746
  103SL       C 1536   1.821   2.711   2.827
  103SL       C 1537   1.903   2.590   2.787
  103SL       H 1538   1.574   2.530   2.682
  103SL       H 1539   1.590   2.548   2.859
  103SL       H 1540   1.618   2.776   2.780
  103SL       H 1541   1.714   2.723   2.640
  103SL       H 1542   1.797   2.706   2.935
  103SL       H 1543   1.875   2.804   2.809
  103SL       H 1544   1.977   2.562   2.863
  103SL       H 1545   1.954   2.607   2.691
  104SL       O 1546   0.465   2.124   2.176
  104SL       S 1547   0.446   2.232   2.270
  104SL       O 1548   0.381   2.212   2.398
  104SL       C 1549   0.604   2.312   2.297
  104SL       C 1550   0.579   2.460   2.269
  104SL       C 1551   0.481   2.465   2.152
  104SL       C 1552   0.368   2.369   2.187
  104SL       H 1553   0.638   2.293   2.399
  104SL       H 1554   0.675   2.270   2.226
  104SL       H 1555   0.672   2.512   2.246
  104SL       H 1556   0.533   2.507   2.357
  104SL       H 1557   0.532   2.431   2.060
  104SL       H 1558   0.444   2.566   2.134
  104SL       H 1559   0.314   2.333   2.099
  104SL       H 1560   0.298   2.415   2.257
  105SL       O 1561   3.153   2.866   0.188
  105SL       S 1562   3.208   2.783   0.293
  105SL       O 1563   3.189   2.815   0.434
  105SL       C 1564   3.157   2.615   0.266
  105SL       C 1565   3.286   2.533   0.266
  105SL       C 1566   3.391   2.620   0.198
  105SL       C 1567   3.381   2.757   0.263
  105SL       H 1568   3.087   2.583   0.343
  105SL       H 1569   3.108   2.610   0.168
  105SL       H 1570   3.273   2.438   0.215
  105SL       H 1571   3.317   2.513   0.370
  105SL       H 1572   3.368   2.628   0.090
  105SL       H 1573   3.491   2.578   0.207
  105SL       H 1574   3.420   2.837   0.200
  105SL       H 1575   3.433   2.757   0.360
  106SL       O 1576   2.861   2.742   1.701
  106SL       S 1577   2.815   2.617   1.757
  106SL       O 1578   2.757   2.514   1.674
  106SL       C 1579   2.945   2.547   1.856
  106SL       C 1580   2.882   2.520   1.992
  106SL       C 1581   2.787   2.637   2.018
  106SL       C 1582   2.704   2.652   1.892
  106SL       H 1583   2.983   2.455   1.808
  106SL       H 1584   3.026   2.620   1.864
  106SL       H 1585   2.958   2.512   2.070
  106SL       H 1586   2.825   2.426   1.990
  106SL       H 1587   2.845   2.729   2.035
  106SL       H 1588   2.724   2.620   2.106
  106SL       H 1589   2.661   2.752   1.880
  106SL       H 1590   2.624   2.577   1.889
  107SL       O 1591   2.211   3.682   1.024
  107SL       S 1592   2.306   3.578   1.061
  107SL       O 1593   2.263   3.446   1.102
  107SL       C 1594   2.425   3.562   0.929
  107SL       C 1595   2.561   3.576   0.997
  107SL       C 1596   2.543   3.682   1.105
  107SL       C 1597   2.419   3.643   1.182
  107SL       H 1598   2.413   3.465   0.879
  107SL       H 1599   2.408   3.642   0.857
  107SL       H 1600   2.639   3.604   0.925
  107SL       H 1601   2.590   3.481   1.043
  107SL       H 1602   2.529   3.781   1.057
  107SL       H 1603   2.631   3.689   1.170
  107SL       H 1604   2.373   3.728   1.234
  107SL       H 1605   2.441   3.563   1.253
  108SL       O 1606   1.434   1.472   1.840
  108SL       S 1607   1.464   1.591   1.915
  108SL       O 1608   1.364   1.658   1.996
  108SL       C 1609   1.608   1.559   2.016
  108SL       C 1610   1.706   1.672   1.982
  108SL       C 1611   1.690   1.698   1.832
  108SL       C 1612   1.541   1.710   1.808
  108SL       H 1613   1.581   1.558   2.122
  108SL       H 1614   1.649   1.462   1.987
  108SL       H 1615   1.809   1.644   2.008
  108SL       H 1616   1.680   1.762   2.038
  108SL       H 1617   1.731   1.612   1.776
  108SL       H 1618   1.744   1.787   1.801
  108SL       H 1619   1.513   1.690   1.704
  108SL       H 1620   1.505   1.810   1.837
  109SL       O 1621   2.993   1.080   3.236
  109SL       S 1622   3.105   1.012   3.176
  109SL       O 1623   3.231   0.993   3.246
  109SL       C 1624   3.049   0.854   3.116
  109SL       C 1625   3.091   0.850   2.969
  109SL       C 1626   3.072   0.992   2.916
  109SL       C 1627   3.139   1.083   3.016
  109SL       H 1628   3.094   0.773   3.175
  109SL       H 1629   2.940   0.850   3.125
  109SL       H 1630   3.032   0.777   2.913
  109SL       H 1631   3.197   0.821   2.961
  109SL       H 1632   2.964   1.014   2.910
  109SL       H 1633   3.114   1.004   2.816
  109SL       H 1634   3.100   1.186   3.013
  109SL       H 1635   3.247   1.085   3.002
  110SL       O 1636   3.562   2.107   3.699
  110SL       S 1637   3.515   1.980   3.651
  110SL       O 1638   3.514   1.945   3.511
  110SL       C 1639   3.598   1.851   3.742
  110SL       C 1640   3.486   1.763   3.798
  110SL       C 1641   3.373   1.859   3.837
  110SL       C 1642   3.352   1.950   3.718
  110SL       H 1643   3.665   1.795   3.676
  110SL       H 1644   3.655   1.897   3.823
  110SL       H 1645   3.520   1.704   3.884
  110SL       H 1646   3.450   1.694   3.722
  110SL       H 1647   3.404   1.918   3.925
  110SL       H 1648   3.282   1.806   3.864
  110SL       H 1649   3.305   2.045   3.745
  110SL       H 1650   3.293   1.899   3.641
  111SL       O 1651   2.226   0.502   2.873
  111SL       S 1652   2.097   0.456   2.918
  111SL       O 1653   1.979   0.539   2.909
  111SL       C 1654   2.063   0.299   2.842
  111SL       C 1655   2.030   0.205   2.957
  111SL       C 1656   2.123   0.244   3.072
  111SL       C 1657   2.112   0.395   3.085
  111SL       H 1658   1.981   0.308   2.771
  111SL       H 1659   2.154   0.266   2.790
  111SL       H 1660   2.044   0.100   2.929
  111SL       H 1661   1.926   0.218   2.988
  111SL       H 1662   2.227   0.216   3.046
  111SL       H 1663   2.097   0.194   3.165
  111SL       H 1664   2.199   0.440   3.133
  111SL       H 1665   2.021   0.423   3.139
  112SL       O 1666   3.280   4.004   2.592
  112SL       S 1667   3.137   3.992   2.575
  112SL       O 1668   3.043   4.063   2.660
  112SL       C 1669   3.097   4.024   2.405
  112SL       C 1670   3.016   3.903   2.359
  112SL       C 1671   3.079   3.782   2.428
  112SL       C 1672   3.093   3.819   2.574
  112SL       H 1673   3.041   4.118   2.396
  112SL       H 1674   3.190   4.032   2.349
  112SL       H 1675   3.017   3.893   2.250
  112SL       H 1676   2.911   3.914   2.391
  112SL       H 1677   3.178   3.763   2.384
  112SL       H 1678   3.019   3.692   2.415
  112SL       H 1679   3.170   3.761   2.625
  112SL       H 1680   2.997   3.809   2.626
  113SL       O 1681   2.021   3.439   3.832
  113SL       S 1682   2.028   3.535   3.939
  113SL       O 1683   1.976   3.507   4.071
  113SL       C 1684   2.197   3.592   3.953
  113SL       C 1685   2.188   3.744   3.945
  113SL       C 1686   2.079   3.775   3.843
  113SL       C 1687   1.960   3.690   3.882
  113SL       H 1688   2.240   3.557   4.047
  113SL       H 1689   2.253   3.552   3.869
  113SL       H 1690   2.284   3.788   3.916
  113SL       H 1691   2.160   3.785   4.043
  113SL       H 1692   2.114   3.748   3.742
  113SL       H 1693   2.053   3.881   3.841
  113SL       H 1694   1.891   3.672   3.799
  113SL       H 1695   1.905   3.735   3.966
  114SL       O 1696   2.652   0.100   1.670
  114SL       S 1697   2.713   0.225   1.710
  114SL       O 1698   2.666   0.299   1.825
  114SL       C 1699   2.889   0.199   1.724
  114SL       C 1700   2.952   0.308   1.637
  114SL       C 1701   2.860   0.322   1.515
  114SL       C 1702   2.720   0.334   1.569
  114SL       H 1703   2.920   0.207   1.829
  114SL       H 1704   2.912   0.100   1.685
  114SL       H 1705   3.054   0.281   1.608
  114SL       H 1706   2.955   0.403   1.691
  114SL       H 1707   2.869   0.232   1.452
  114SL       H 1708   2.888   0.408   1.453
  114SL       H 1709   2.643   0.305   1.496
  114SL       H 1710   2.700   0.436   1.605
  115SL       O 1711   2.598   3.027   0.186
  115SL       S 1712   2.643   2.977   0.314
  115SL       O 1713   2.661   3.065   0.428
  115SL       C 1714   2.539   2.841   0.361
  115SL       C 1715   2.636   2.726   0.391
  115SL       C 1716   2.748   2.737   0.288
  115SL       C 1717   2.792   2.882   0.291
  115SL       H 1718   2.479   2.868   0.448
  115SL       H 1719   2.475   2.816   0.277
  115SL       H 1720   2.586   2.629   0.386
  115SL       H 1721   2.677   2.737   0.492
  115SL       H 1722   2.709   2.711   0.189
  115SL       H 1723   2.831   2.670   0.311
  115SL       H 1724   2.842   2.913   0.198
  115SL       H 1725   2.858   2.902   0.376
  116SL       O 1726   2.757   3.162   0.255
  116SL       S 1727   2.681   3.277   0.213
  116SL       O 1728   2.590   3.271   0.100
  116SL       C 1729   2.593   3.341   0.354
  116SL       C 1730   2.631   3.489   0.360
  116SL       C 1731   2.778   3.497   0.319
  116SL       C 1732   2.790   3.416   0.192
  116SL       H 1733   2.485   3.326   0.342
  116SL       H 1734   2.628   3.289   0.443
  116SL       H 1735   2.614   3.531   0.460
  116SL       H 1736   2.570   3.546   0.289
  116SL       H 1737   2.840   3.453   0.399
  116SL       H 1738   2.811   3.600   0.305
  116SL       H 1739   2.892   3.380   0.174
  116SL       H 1740   2.755   3.473   0.106
  117SL       O 1741   1.166   0.503   3.124
  117SL       S 1742   1.091   0.442   3.231
  117SL       O 1743   1.138   0.442   3.368
  117SL       C 1744   0.924   0.505   3.226
  117SL       C 1745   0.835   0.381   3.221
  117SL       C 1746   0.908   0.280   3.133
  117SL       C 1747   1.050   0.274   3.185
  117SL       H 1748   0.905   0.567   3.313
  117SL       H 1749   0.913   0.564   3.135
  117SL       H 1750   0.736   0.405   3.181
  117SL       H 1751   0.822   0.340   3.322
  117SL       H 1752   0.907   0.315   3.028
  117SL       H 1753   0.860   0.182   3.136
  117SL       H 1754   1.121   0.238   3.110
  117SL       H 1755   1.057   0.212   3.275
  118SL       O 1756   1.197   1.895   0.578
  118SL       S 1757   1.175   1.799   0.472
  118SL       O 1758   1.163   1.839   0.334
  118SL       C 1759   1.297   1.670   0.486
  118SL       C 1760   1.217   1.540   0.490
  118SL       C 1761   1.091   1.570   0.572
  118SL       C 1762   1.034   1.698   0.515
  118SL       H 1763   1.366   1.674   0.401
  118SL       H 1764   1.352   1.684   0.579
  118SL       H 1765   1.275   1.458   0.534
  118SL       H 1766   1.188   1.510   0.388
  118SL       H 1767   1.120   1.585   0.677
  118SL       H 1768   1.019   1.488   0.568
  118SL       H 1769   0.970   1.751   0.586
  118SL       H 1770   0.978   1.678   0.422
  119SL       O 1771   1.598   1.358   1.648
  119SL       S 1772   1.679   1.296   1.546
  119SL       O 1773   1.641   1.297   1.406
  119SL       C 1774   1.846   1.356   1.561
  119SL       C 1775   1.932   1.231   1.572
  119SL       C 1776   1.852   1.131   1.655
  119SL       C 1777   1.714   1.128   1.594
  119SL       H 1778   1.872   1.418   1.475
  119SL       H 1779   1.852   1.416   1.653
  119SL       H 1780   2.029   1.253   1.618
  119SL       H 1781   1.951   1.190   1.472
  119SL       H 1782   1.847   1.166   1.759
  119SL       H 1783   1.898   1.032   1.655
  119SL       H 1784   1.637   1.093   1.664
  119SL       H 1785   1.712   1.066   1.504
  120SL       O 1786   2.279   1.646   2.887
  120SL       S 1787   2.142   1.634   2.844
  120SL       O 1788   2.105   1.647   2.704
  120SL       C 1789   2.075   1.482   2.907
  120SL       C 1790   1.948   1.522   2.981
  120SL       C 1791   1.978   1.656   3.048
  120SL       C 1792   2.040   1.743   2.941
  120SL       H 1793   2.056   1.412   2.826
  120SL       H 1794   2.148   1.439   2.977
  120SL       H 1795   1.918   1.446   3.054
  120SL       H 1796   1.866   1.535   2.909
  120SL       H 1797   2.050   1.640   3.130
  120SL       H 1798   1.888   1.702   3.090
  120SL       H 1799   2.102   1.824   2.982
  120SL       H 1800   1.964   1.785   2.875
  121SL       O 1801   0.524   1.919   1.869
  121SL       S 1802   0.422   1.887   1.772
  121SL       O 1803   0.397   1.970   1.656
  121SL       C 1804   0.447   1.719   1.718
  121SL       C 1805   0.312   1.650   1.740
  121SL       C 1806   0.255   1.708   1.869
  121SL       C 1807   0.268   1.859   1.856
  121SL       H 1808   0.478   1.717   1.613
  121SL       H 1809   0.524   1.673   1.781
  121SL       H 1810   0.323   1.541   1.746
  121SL       H 1811   0.244   1.673   1.657
  121SL       H 1812   0.315   1.672   1.955
  121SL       H 1813   0.152   1.678   1.886
  121SL       H 1814   0.269   1.910   1.953
  121SL       H 1815   0.188   1.899   1.794
  122SL       O 1816   0.478   3.265   0.184
  122SL       S 1817   0.443   3.269   0.324
  122SL       O 1818   0.520   3.346   0.420
  122SL       C 1819   0.271   3.314   0.338
  122SL       C 1820   0.209   3.205   0.425
  122SL       C 1821   0.277   3.074   0.384
  122SL       C 1822   0.425   3.103   0.385
  122SL       H 1823   0.261   3.414   0.383
  122SL       H 1824   0.227   3.314   0.238
  122SL       H 1825   0.100   3.200   0.411
  122SL       H 1826   0.228   3.225   0.531
  122SL       H 1827   0.244   3.047   0.282
  122SL       H 1828   0.251   2.992   0.450
  122SL       H 1829   0.483   3.034   0.321
  122SL       H 1830   0.465   3.100   0.487
  123SL       O 1831   3.008   1.782   3.284
  123SL       S 1832   2.897   1.765   3.193
  123SL       O 1833   2.895   1.662   3.092
  123SL       C 1834   2.746   1.754   3.289
  123SL       C 1835   2.654   1.861   3.230
  123SL       C 1836   2.744   1.979   3.194
  123SL       C 1837   2.860   1.922   3.116
  123SL       H 1838   2.704   1.653   3.281
  123SL       H 1839   2.770   1.777   3.393
  123SL       H 1840   2.576   1.889   3.301
  123SL       H 1841   2.606   1.822   3.139
  123SL       H 1842   2.780   2.027   3.287
  123SL       H 1843   2.690   2.055   3.137
  123SL       H 1844   2.949   1.986   3.119
  123SL       H 1845   2.832   1.902   3.012
  124SL       O 1846   1.353   3.376   3.752
  124SL       S 1847   1.301   3.509   3.777
  124SL       O 1848   1.198   3.568   3.694
  124SL       C 1849   1.252   3.519   3.948
  124SL       C 1850   1.325   3.642   4.002
  124SL       C 1851   1.463   3.643   3.936
  124SL       C 1852   1.438   3.624   3.788
  124SL       H 1853   1.143   3.529   3.955
  124SL       H 1854   1.285   3.429   3.998
  124SL       H 1855   1.333   3.638   4.112
  124SL       H 1856   1.270   3.733   3.976
  124SL       H 1857   1.522   3.559   3.976
  124SL       H 1858   1.517   3.735   3.956
  124SL       H 1859   1.524   3.583   3.735
  124SL       H 1860   1.406   3.717   3.741
  125SL       O 1861   1.970   1.240   1.202
  125SL       S 1862   1.897   1.296   1.091
  125SL       O 1863   1.933   1.268   0.953
  125SL       C 1864   1.724   1.260   1.114
  125SL       C 1865   1.653   1.395   1.104
  125SL       C 1866   1.746   1.496   1.171
  125SL       C 1867   1.883   1.473   1.112
  125SL       H 1868   1.689   1.189   1.038
  125SL       H 1869   1.711   1.217   1.213
  125SL       H 1870   1.555   1.392   1.152
  125SL       H 1871   1.639   1.422   0.999
  125SL       H 1872   1.747   1.477   1.280
  125SL       H 1873   1.712   1.599   1.156
  125SL       H 1874   1.964   1.508   1.177
  125SL       H 1875   1.892   1.519   1.014
  126SL       O 1876   3.948   0.862   2.700
  126SL       S 1877   3.846   0.777   2.643
  126SL       O 1878   3.727   0.831   2.581
  126SL       C 1879   3.925   0.663   2.530
  126SL       C 1880   3.880   0.525   2.576
  126SL       C 1881   3.875   0.530   2.728
  126SL       C 1882   3.798   0.655   2.764
  126SL       H 1883   3.895   0.686   2.427
  126SL       H 1884   4.033   0.674   2.541
  126SL       H 1885   3.948   0.447   2.540
  126SL       H 1886   3.780   0.503   2.536
  126SL       H 1887   3.978   0.536   2.768
  126SL       H 1888   3.829   0.440   2.771
  126SL       H 1889   3.820   0.692   2.864
  126SL       H 1890   3.690   0.639   2.753
  127SL       O 1891   3.837   0.367   3.824
  127SL       S 1892   3.772   0.299   3.934
  127SL       O 1893   3.847   0.221   4.030
  127SL       C 1894   3.670   0.417   4.020
  127SL       C 1895   3.532   0.354   4.025
  127SL       C 1896   3.513   0.282   3.892
  127SL       C 1897   3.638   0.200   3.871
  127SL       H 1898   3.711   0.436   4.120
  127SL       H 1899   3.669   0.510   3.962
  127SL       H 1900   3.454   0.429   4.042
  127SL       H 1901   3.526   0.281   4.107
  127SL       H 1902   3.503   0.357   3.811
  127SL       H 1903   3.423   0.220   3.891
  127SL       H 1904   3.656   0.176   3.765
  127SL       H 1905   3.635   0.107   3.929
  128SL       O 1906   3.481   0.472   0.796
  128SL       S 1907   3.464   0.615   0.802
  128SL       O 1908   3.337   0.678   0.771
  128SL       C 1909   3.521   0.673   0.961
  128SL       C 1910   3.622   0.783   0.929
  128SL       C 1911   3.698   0.736   0.804
  128SL       C 1912   3.592   0.693   0.705
  128SL       H 1913   3.437   0.710   1.020
  128SL       H 1914   3.569   0.589   1.012
  128SL       H 1915   3.690   0.800   1.013
  128SL       H 1916   3.570   0.877   0.907
  128SL       H 1917   3.762   0.650   0.831
  128SL       H 1918   3.762   0.814   0.764
  128SL       H 1919   3.630   0.622   0.630
  128SL       H 1920   3.548   0.780   0.655
  129SL       O 1921   2.235   1.855   1.766
  129SL       S 1922   2.350   1.943   1.755
  129SL       O 1923   2.427   1.953   1.632
  129SL       C 1924   2.302   2.106   1.808
  129SL       C 1925   2.404   2.144   1.915
  129SL       C 1926   2.433   2.016   1.993
  129SL       C 1927   2.462   1.909   1.890
  129SL       H 1928   2.303   2.175   1.723
  129SL       H 1929   2.202   2.100   1.850
  129SL       H 1930   2.366   2.223   1.981
  129SL       H 1931   2.496   2.180   1.868
  129SL       H 1932   2.344   1.988   2.053
  129SL       H 1933   2.517   2.028   2.063
  129SL       H 1934   2.445   1.808   1.927
  129SL       H 1935   2.564   1.918   1.851
  130SL       O 1936   0.649   3.409   1.249
  130SL       S 1937   0.657   3.286   1.324
  130SL       O 1938   0.663   3.157   1.260
  130SL       C 1939   0.793   3.300   1.439
  130SL       C 1940   0.733   3.267   1.576
  130SL       C 1941   0.592   3.328   1.576
  130SL       C 1942   0.528   3.284   1.446
  130SL       H 1943   0.873   3.231   1.411
  130SL       H 1944   0.830   3.403   1.437
  130SL       H 1945   0.794   3.306   1.657
  130SL       H 1946   0.725   3.158   1.588
  130SL       H 1947   0.601   3.438   1.579
  130SL       H 1948   0.534   3.297   1.663
  130SL       H 1949   0.446   3.350   1.415
  130SL       H 1950   0.491   3.181   1.454
  131SL       O 1951   3.815   2.549   3.048
  131SL       S 1952   3.850   2.639   3.155
  131SL       O 1953   3.820   2.608   3.294
  131SL       C 1954   4.023   2.680   3.141
  131SL       C 1955   4.027   2.833   3.141
  131SL       C 1956   3.905   2.878   3.061
  131SL       C 1957   3.787   2.801   3.118
  131SL       H 1958   4.079   2.637   3.225
  131SL       H 1959   4.060   2.640   3.047
  131SL       H 1960   4.120   2.870   3.097
  131SL       H 1961   4.021   2.871   3.243
  131SL       H 1962   3.919   2.853   2.955
  131SL       H 1963   3.889   2.986   3.068
  131SL       H 1964   3.704   2.793   3.047
  131SL       H 1965   3.752   2.846   3.211
  132SL       O 1966   2.628   0.336   2.468
  132SL       S 1967   2.594   0.371   2.604
  132SL       O 1968   2.560   0.506   2.643
  132SL       C 1969   2.466   0.260   2.660
  132SL       C 1970   2.520   0.200   2.790
  132SL       C 1971   2.670   0.180   2.769
  132SL       C 1972   2.722   0.310   2.713
  132SL       H 1973   2.373   0.315   2.675
  132SL       H 1974   2.452   0.183   2.585
  132SL       H 1975   2.469   0.106   2.815
  132SL       H 1976   2.503   0.270   2.873
  132SL       H 1977   2.685   0.098   2.696
  132SL       H 1978   2.721   0.152   2.861
  132SL       H 1979   2.815   0.298   2.657
  132SL       H 1980   2.736   0.384   2.793
  133SL       O 1981   1.890   3.173   4.017
  133SL       S 1982   1.840   3.122   3.891
  133SL       O 1983   1.929   3.077   3.786
  133SL       C 1984   1.721   2.993   3.925
  133SL       C 1985   1.596   3.034   3.848
  133SL       C 1986   1.587   3.187   3.859
  133SL       C 1987   1.724   3.239   3.822
  133SL       H 1988   1.760   2.896   3.894
  133SL       H 1989   1.702   2.992   4.033
  133SL       H 1990   1.506   2.986   3.889
  133SL       H 1991   1.605   3.005   3.743
  133SL       H 1992   1.562   3.214   3.963
  133SL       H 1993   1.510   3.228   3.794
  133SL       H 1994   1.744   3.338   3.863
  133SL       H 1995   1.739   3.239   3.714
  134SL       O 1996   2.800   3.589   0.567
  134SL       S 1997   2.839   3.510   0.681
  134SL       O 1998   2.882   3.570   0.806
  134SL       C 1999   2.709   3.393   0.716
  134SL       C 2000   2.778   3.257   0.719
  134SL       C 2001   2.885   3.261   0.609
  134SL       C 2002   2.961   3.390   0.630
  134SL       H 2003   2.661   3.417   0.810
  134SL       H 2004   2.636   3.398   0.634
  134SL       H 2005   2.707   3.175   0.702
  134SL       H 2006   2.826   3.241   0.816
  134SL       H 2007   2.836   3.261   0.511
  134SL       H 2008   2.951   3.174   0.613
  134SL       H 2009   3.012   3.425   0.540
  134SL       H 2010   3.034   3.380   0.712
  135SL       O 2011   0.881   3.771   2.437
  135SL       S 2012   0.843   3.656   2.359
  135SL       O 2013   0.764   3.548   2.414
  135SL       C 2014   0.766   3.713   2.209
  135SL       C 2015   0.843   3.645   2.096
  135SL       C 2016   0.989   3.641   2.140
  135SL       C 2017   0.989   3.587   2.282
  135SL       H 2018   0.660   3.687   2.209
  135SL       H 2019   0.778   3.822   2.203
  135SL       H 2020   0.831   3.698   2.001
  135SL       H 2021   0.806   3.542   2.082
  135SL       H 2022   1.030   3.744   2.139
  135SL       H 2023   1.051   3.580   2.074
  135SL       H 2024   1.078   3.616   2.339
  135SL       H 2025   0.978   3.478   2.282
  136SL       O 2026   2.387   2.334   2.777
  136SL       S 2027   2.327   2.277   2.895
  136SL       O 2028   2.267   2.145   2.894
  136SL       C 2029   2.444   2.286   3.029
  136SL       C 2030   2.370   2.356   3.142
  136SL       C 2031   2.282   2.463   3.075
  136SL       C 2032   2.210   2.393   2.962
  136SL       H 2033   2.478   2.186   3.056
  136SL       H 2034   2.529   2.346   2.995
  136SL       H 2035   2.439   2.401   3.214
  136SL       H 2036   2.306   2.285   3.195
  136SL       H 2037   2.347   2.543   3.035
  136SL       H 2038   2.213   2.509   3.146
  136SL       H 2039   2.176   2.462   2.884
  136SL       H 2040   2.124   2.336   3.000
  137SL       O 2041   2.559   2.105   3.865
  137SL       S 2042   2.581   2.156   3.731
  137SL       O 2043   2.698   2.119   3.654
  137SL       C 2044   2.435   2.125   3.634
  137SL       C 2045   2.396   2.261   3.576
  137SL       C 2046   2.426   2.363   3.686
  137SL       C 2047   2.566   2.333   3.734
  137SL       H 2048   2.456   2.051   3.557
  137SL       H 2049   2.357   2.088   3.701
  137SL       H 2050   2.291   2.263   3.546
  137SL       H 2051   2.457   2.282   3.488
  137SL       H 2052   2.354   2.351   3.768
  137SL       H 2053   2.417   2.466   3.649
  137SL       H 2054   2.585   2.370   3.835
  137SL       H 2055   2.641   2.374   3.665
  138SL       O 2056   0.514   2.853   2.810
  138SL       S 2057   0.539   2.887   2.948
  138SL       O 2058   0.674   2.904   2.999
  138SL       C 2059   0.443   3.030   2.990
  138SL       C 2060   0.364   2.990   3.115
  138SL       C 2061   0.325   2.843   3.094
  138SL       C 2062   0.452   2.772   3.053
  138SL       H 2063   0.508   3.116   3.008
  138SL       H 2064   0.375   3.052   2.907
  138SL       H 2065   0.276   3.053   3.129
  138SL       H 2066   0.427   2.999   3.204
  138SL       H 2067   0.250   2.836   3.014
  138SL       H 2068   0.282   2.799   3.184
  138SL       H 2069   0.433   2.679   2.998
  138SL       H 2070   0.515   2.751   3.139
  139SL       O 2071   2.859   1.333   2.773
  139SL       S 2072   2.800   1.351   2.643
  139SL       O 2073   2.837   1.267   2.530
  139SL       C 2074   2.623   1.351   2.660
  139SL       C 2075   2.577   1.480   2.593
  139SL       C 2076   2.682   1.585   2.626
  139SL       C 2077   2.816   1.522   2.595
  139SL       H 2078   2.581   1.261   2.613
  139SL       H 2079   2.599   1.352   2.767
  139SL       H 2080   2.477   1.509   2.628
  139SL       H 2081   2.571   1.466   2.484
  139SL       H 2082   2.676   1.610   2.734
  139SL       H 2083   2.667   1.677   2.570
  139SL       H 2084   2.899   1.568   2.649
  139SL       H 2085   2.836   1.525   2.487
  140SL       O 2086   2.894   2.664   3.248
  140SL       S 2087   2.788   2.571   3.218
  140SL       O 2088   2.739   2.553   3.082
  140SL       C 2089   2.830   2.412   3.286
  140SL       C 2090   2.710   2.372   3.371
  140SL       C 2091   2.660   2.501   3.436
  140SL       C 2092   2.649   2.603   3.325
  140SL       H 2093   2.850   2.341   3.205
  140SL       H 2094   2.919   2.425   3.348
  140SL       H 2095   2.737   2.297   3.446
  140SL       H 2096   2.631   2.330   3.307
  140SL       H 2097   2.733   2.535   3.512
  140SL       H 2098   2.564   2.487   3.487
  140SL       H 2099   2.653   2.706   3.361
  140SL       H 2100   2.558   2.588   3.267
  141SL       O 2101   2.181   1.518   1.036
  141SL       S 2102   2.254   1.504   0.912
  141SL       O 2103   2.324   1.615   0.852
  141SL       C 2104   2.365   1.366   0.927
  141SL       C 2105   2.334   1.277   0.807
  141SL       C 2106   2.183   1.284   0.787
  141SL       C 2107   2.147   1.431   0.790
  141SL       H 2108   2.469   1.401   0.928
  141SL       H 2109   2.343   1.314   1.021
  141SL       H 2110   2.368   1.174   0.824
  141SL       H 2111   2.385   1.315   0.718
  141SL       H 2112   2.133   1.231   0.870
  141SL       H 2113   2.152   1.236   0.694
  141SL       H 2114   2.043   1.449   0.816
  141SL       H 2115   2.170   1.478   0.693
  142SL       O 2116   1.599   3.070   2.127
  142SL       S 2117   1.692   3.080   2.236
  142SL       O 2118   1.648   3.089   2.374
  142SL       C 2119   1.810   2.947   2.222
  142SL       C 2120   1.947   3.014   2.225
  142SL       C 2121   1.931   3.145   2.148
  142SL       C 2122   1.807   3.212   2.203
  142SL       H 2123   1.797   2.876   2.304
  142SL       H 2124   1.794   2.897   2.126
  142SL       H 2125   2.024   2.951   2.182
  142SL       H 2126   1.976   3.036   2.329
  142SL       H 2127   1.918   3.123   2.041
  142SL       H 2128   2.019   3.209   2.157
  142SL       H 2129   1.762   3.283   2.133
  142SL       H 2130   1.829   3.262   2.298
  143SL       O 2131   3.365   2.223   1.406
  143SL       S 2132   3.508   2.226   1.430
  143SL       O 2133   3.582   2.350   1.434
  143SL       C 2134   3.542   2.133   1.578
  143SL       C 2135   3.648   2.031   1.537
  143SL       C 2136   3.612   1.987   1.395
  143SL       C 2137   3.588   2.114   1.316
  143SL       H 2138   3.576   2.199   1.657
  143SL       H 2139   3.450   2.083   1.608
  143SL       H 2140   3.650   1.946   1.606
  143SL       H 2141   3.747   2.077   1.537
  143SL       H 2142   3.519   1.926   1.398
  143SL       H 2143   3.690   1.926   1.350
  143SL       H 2144   3.525   2.099   1.228
  143SL       H 2145   3.683   2.160   1.286
  144SL       O 2146   4.101   1.582   2.030
  144SL       S 2147   4.025   1.544   2.147
  144SL       O 2148   4.030   1.409   2.200
  144SL       C 2149   4.061   1.659   2.278
  144SL       C 2150   3.924   1.709   2.324
  144SL       C 2151   3.838   1.721   2.198
  144SL       C 2152   3.855   1.591   2.124
  144SL       H 2153   4.116   1.609   2.358
  144SL       H 2154   4.120   1.741   2.236
  144SL       H 2155   3.933   1.805   2.377
  144SL       H 2156   3.879   1.637   2.393
  144SL       H 2157   3.876   1.805   2.137
  144SL       H 2158   3.734   1.742   2.222
  144SL       H 2159   3.833   1.599   2.017
  144SL       H 2160   3.792   1.512   2.168
  145SL       O 2161   3.759   2.488   2.614
  145SL       S 2162   3.628   2.549   2.604
  145SL       O 2163   3.508   2.478   2.645
  145SL       C 2164   3.633   2.708   2.684
  145SL       C 2165   3.581   2.806   2.580
  145SL       C 2166   3.635   2.758   2.445
  145SL       C 2167   3.605   2.610   2.438
  145SL       H 2168   3.571   2.706   2.774
  145SL       H 2169   3.736   2.730   2.710
  145SL       H 2170   3.612   2.909   2.602
  145SL       H 2171   3.471   2.804   2.577
  145SL       H 2172   3.744   2.775   2.442
  145SL       H 2173   3.591   2.813   2.361
  145SL       H 2174   3.671   2.556   2.369
  145SL       H 2175   3.501   2.593   2.410
  146SL       O 2176   2.455   1.315   3.285
  146SL       S 2177   2.372   1.362   3.393
  146SL       O 2178   2.398   1.326   3.531
  146SL       C 2179   2.358   1.539   3.381
  146SL       C 2180   2.208   1.567   3.381
  146SL       C 2181   2.144   1.454   3.300
  146SL       C 2182   2.202   1.326   3.356
  146SL       H 2183   2.410   1.587   3.465
  146SL       H 2184   2.403   1.571   3.287
  146SL       H 2185   2.186   1.665   3.338
  146SL       H 2186   2.170   1.566   3.484
  146SL       H 2187   2.171   1.466   3.194
  146SL       H 2188   2.035   1.456   3.307
  146SL       H 2189   2.197   1.243   3.284
  146SL       H 2190   2.152   1.297   3.449
  147SL       O 2191   3.110   0.937   1.857
  147SL       S 2192   3.093   1.063   1.926
  147SL       O 2193   3.058   1.068   2.067
  147SL       C 2194   3.239   1.162   1.900
  147SL       C 2195   3.187   1.295   1.846
  147SL       C 2196   3.068   1.261   1.755
  147SL       C 2197   2.981   1.166   1.834
  147SL       H 2198   3.294   1.173   1.993
  147SL       H 2199   3.301   1.112   1.825
  147SL       H 2200   3.264   1.350   1.792
  147SL       H 2201   3.152   1.358   1.929
  147SL       H 2202   3.106   1.211   1.664
  147SL       H 2203   3.014   1.350   1.724
  147SL       H 2204   2.917   1.104   1.771
  147SL       H 2205   2.919   1.221   1.907
  148SL       O 2206   1.544   2.674   1.385
  148SL       S 2207   1.423   2.733   1.333
  148SL       O 2208   1.296   2.663   1.338
  148SL       C 2209   1.403   2.895   1.404
  148SL       C 2210   1.386   2.989   1.285
  148SL       C 2211   1.479   2.936   1.176
  148SL       C 2212   1.452   2.788   1.166
  148SL       H 2213   1.317   2.896   1.472
  148SL       H 2214   1.494   2.919   1.460
  148SL       H 2215   1.409   3.092   1.312
  148SL       H 2216   1.282   2.985   1.250
  148SL       H 2217   1.583   2.954   1.206
  148SL       H 2218   1.463   2.987   1.080
  148SL       H 2219   1.536   2.732   1.123
  148SL       H 2220   1.361   2.768   1.108
  149SL       O 2221   0.549   3.193   2.089
  149SL       S 2222   0.609   3.324   2.100
  149SL       O 2223   0.743   3.343   2.151
  149SL       C 2224   0.595   3.406   1.942
  149SL       C 2225   0.528   3.540   1.973
  149SL       C 2226   0.425   3.511   2.083
  149SL       C 2227   0.498   3.431   2.189
  149SL       H 2228   0.694   3.419   1.897
  149SL       H 2229   0.532   3.345   1.877
  149SL       H 2230   0.481   3.583   1.884
  149SL       H 2231   0.602   3.612   2.010
  149SL       H 2232   0.343   3.451   2.040
  149SL       H 2233   0.382   3.603   2.123
  149SL       H 2234   0.431   3.371   2.251
  149SL       H 2235   0.558   3.497   2.252
  150SL       O 2236   1.692   2.192   3.241
  150SL       S 2237   1.773   2.297   3.184
  150SL       O 2238   1.858   2.275   3.069
  150SL       C 2239   1.669   2.439   3.153
  150SL       C 2240   1.739   2.555   3.224
  150SL       C 2241   1.797   2.497   3.353
  150SL       C 2242   1.871   2.372   3.313
  150SL       H 2243   1.659   2.455   3.046
  150SL       H 2244   1.571   2.419   3.198
  150SL       H 2245   1.669   2.637   3.244
  150SL       H 2246   1.820   2.594   3.162
  150SL       H 2247   1.714   2.472   3.422
  150SL       H 2248   1.862   2.568   3.404
  150SL       H 2249   1.883   2.301   3.396
  150SL       H 2250   1.969   2.396   3.271
  151SL       O 2251   2.090   0.875   1.614
  151SL       S 2252   2.030   0.751   1.571
  151SL       O 2253   2.105   0.650   1.499
  151SL       C 2254   1.951   0.675   1.712
  151SL       C 2255   1.808   0.649   1.668
  151SL       C 2256   1.767   0.768   1.581
  151SL       C 2257   1.880   0.786   1.482
  151SL       H 2258   2.004   0.583   1.740
  151SL       H 2259   1.954   0.746   1.795
  151SL       H 2260   1.741   0.637   1.754
  151SL       H 2261   1.803   0.556   1.609
  151SL       H 2262   1.757   0.857   1.645
  151SL       H 2263   1.672   0.751   1.531
  151SL       H 2264   1.884   0.888   1.441
  151SL       H 2265   1.872   0.714   1.400
  152SL       O 2266   3.301   3.010   0.264
  152SL       S 2267   3.305   3.119   0.359
  152SL       O 2268   3.369   3.105   0.489
  152SL       C 2269   3.370   3.263   0.278
  152SL       C 2270   3.266   3.373   0.303
  152SL       C 2271   3.130   3.304   0.296
  152SL       C 2272   3.140   3.182   0.384
  152SL       H 2273   3.468   3.289   0.319
  152SL       H 2274   3.378   3.242   0.171
  152SL       H 2275   3.275   3.454   0.230
  152SL       H 2276   3.281   3.416   0.403
  152SL       H 2277   3.110   3.275   0.191
  152SL       H 2278   3.049   3.370   0.328
  152SL       H 2279   3.067   3.104   0.357
  152SL       H 2280   3.129   3.208   0.489
  153SL       O 2281   3.906   3.653   3.339
  153SL       S 2282   3.822   3.536   3.356
  153SL       O 2283   3.765   3.501   3.485
  153SL       C 2284   3.691   3.542   3.235
  153SL       C 2285   3.698   3.407   3.163
  153SL       C 2286   3.846   3.373   3.151
  153SL       C 2287   3.905   3.394   3.289
  153SL       H 2288   3.595   3.558   3.284
  153SL       H 2289   3.712   3.624   3.166
  153SL       H 2290   3.649   3.412   3.065
  153SL       H 2291   3.647   3.330   3.222
  153SL       H 2292   3.894   3.442   3.079
  153SL       H 2293   3.862   3.271   3.115
  153SL       H 2294   4.013   3.412   3.287
  153SL       H 2295   3.883   3.308   3.354
  154SL       O 2296   0.668   1.124   1.462
  154SL       S 2297   0.667   1.047   1.584
  154SL       O 2298   0.683   1.108   1.715
  154SL       C 2299   0.521   0.945   1.586
  154SL       C 2300   0.571   0.803   1.610
  154SL       C 2301   0.702   0.791   1.532
  154SL       C 2302   0.784   0.913   1.570
  154SL       H 2303   0.452   0.979   1.665
  154SL       H 2304   0.472   0.953   1.489
  154SL       H 2305   0.498   0.728   1.577
  154SL       H 2306   0.590   0.787   1.717
  154SL       H 2307   0.681   0.792   1.424
  154SL       H 2308   0.755   0.698   1.555
  154SL       H 2309   0.860   0.938   1.495
  154SL       H 2310   0.832   0.900   1.667
  155SL       O 2311   0.100   2.573   3.206
  155SL       S 2312   0.179   2.506   3.306
  155SL       O 2313   0.168   2.540   3.447
  155SL       C 2314   0.159   2.330   3.286
  155SL       C 2315   0.301   2.275   3.276
  155SL       C 2316   0.381   2.378   3.195
  155SL       C 2317   0.351   2.513   3.259
  155SL       H 2318   0.105   2.289   3.372
  155SL       H 2319   0.103   2.312   3.194
  155SL       H 2320   0.302   2.177   3.227
  155SL       H 2321   0.345   2.265   3.376
  155SL       H 2322   0.346   2.378   3.091
  155SL       H 2323   0.487   2.357   3.195
  155SL       H 2324   0.367   2.597   3.191
  155SL       H 2325   0.410   2.527   3.350
  156SL       O 2326   2.236   3.434   3.290
  156SL       S 2327   2.103   3.487   3.313
  156SL       O 2328   2.028   3.553   3.209
  156SL       C 2329   2.003   3.358   3.385
  156SL       C 2330   1.945   3.420   3.513
  156SL       C 2331   2.056   3.507   3.571
  156SL       C 2332   2.107   3.592   3.457
  156SL       H 2333   1.925   3.328   3.315
  156SL       H 2334   2.067   3.274   3.409
  156SL       H 2335   1.913   3.343   3.584
  156SL       H 2336   1.858   3.482   3.489
  156SL       H 2337   2.137   3.443   3.610
  156SL       H 2338   2.021   3.569   3.654
  156SL       H 2339   2.209   3.629   3.473
  156SL       H 2340   2.040   3.677   3.438
  157SL       O 2341   1.852   1.063   0.631
  157SL       S 2342   1.847   0.947   0.718
  157SL       O 2343   1.966   0.897   0.785
  157SL       C 2344   1.718   0.971   0.838
  157SL       C 2345   1.631   0.847   0.828
  157SL       C 2346   1.626   0.811   0.680
  157SL       C 2347   1.769   0.812   0.632
  157SL       H 2348   1.762   0.984   0.938
  157SL       H 2349   1.662   1.061   0.811
  157SL       H 2350   1.530   0.865   0.868
  157SL       H 2351   1.675   0.765   0.885
  157SL       H 2352   1.567   0.887   0.626
  157SL       H 2353   1.578   0.714   0.663
  157SL       H 2354   1.778   0.828   0.524
  157SL       H 2355   1.821   0.720   0.660
  158SL       O 2356   1.354   2.381   2.042
  158SL       S 2357   1.444   2.345   2.149
  158SL       O 2358   1.553   2.431   2.191
  158SL       C 2359   1.347   2.301   2.292
  158SL       C 2360   1.396   2.162   2.332
  158SL       C 2361   1.425   2.087   2.202
  158SL       C 2362   1.509   2.181   2.118
  158SL       H 2363   1.361   2.375   2.371
  158SL       H 2364   1.242   2.297   2.262
  158SL       H 2365   1.322   2.109   2.393
  158SL       H 2366   1.488   2.170   2.391
  158SL       H 2367   1.329   2.066   2.151
  158SL       H 2368   1.475   1.992   2.219
  158SL       H 2369   1.503   2.159   2.011
  158SL       H 2370   1.613   2.180   2.150
  159SL       O 2371   3.914   0.923   1.438
  159SL       S 2372   3.884   0.785   1.467
  159SL       O 2373   3.797   0.706   1.381
  159SL       C 2374   4.037   0.697   1.491
  159SL       C 2375   4.022   0.629   1.626
  159SL       C 2376   3.946   0.727   1.715
  159SL       C 2377   3.826   0.772   1.635
  159SL       H 2378   4.053   0.626   1.409
  159SL       H 2379   4.118   0.771   1.493
  159SL       H 2380   4.120   0.603   1.669
  159SL       H 2381   3.965   0.536   1.616
  159SL       H 2382   4.011   0.813   1.739
  159SL       H 2383   3.916   0.681   1.810
  159SL       H 2384   3.786   0.868   1.668
  159SL       H 2385   3.747   0.696   1.637
  160SL       O 2386   1.048   1.310   0.415
  160SL       S 2387   1.097   1.283   0.281
  160SL       O 2388   1.120   1.389   0.185
  160SL       C 2389   1.244   1.182   0.294
  160SL       C 2390   1.217   1.061   0.205
  160SL       C 2391   1.069   1.028   0.223
  160SL       C 2392   0.994   1.158   0.206
  160SL       H 2393   1.331   1.239   0.261
  160SL       H 2394   1.255   1.152   0.398
  160SL       H 2395   1.281   0.977   0.232
  160SL       H 2396   1.236   1.086   0.100
  160SL       H 2397   1.053   0.987   0.324
  160SL       H 2398   1.035   0.952   0.152
  160SL       H 2399   0.896   1.157   0.254
  160SL       H 2400   0.983   1.184   0.100
  161SL       O 2401   0.648   0.911   1.000
  161SL       S 2402   0.540   1.006   0.996
  161SL       O 2403   0.510   1.094   1.107
  161SL       C 2404   0.557   1.104   0.848
  161SL       C 2405   0.422   1.093   0.777
  161SL       C 2406   0.374   0.949   0.799
  161SL       C 2407   0.390   0.923   0.947
  161SL       H 2408   0.582   1.207   0.874
  161SL       H 2409   0.636   1.060   0.787
  161SL       H 2410   0.430   1.117   0.671
  161SL       H 2411   0.350   1.163   0.822
  161SL       H 2412   0.438   0.881   0.741
  161SL       H 2413   0.271   0.935   0.766
  161SL       H 2414   0.398   0.816   0.971
  161SL       H 2415   0.307   0.967   1.004
  162SL       O 2416   1.825   3.694   2.999
  162SL       S 2417   1.757   3.796   2.922
  162SL       O 2418   1.827   3.875   2.822
  162SL       C 2419   1.612   3.724   2.848
  162SL       C 2420   1.497   3.815   2.890
  162SL       C 2421   1.527   3.859   3.033
  162SL       C 2422   1.671   3.906   3.032
  162SL       H 2423   1.624   3.718   2.739
  162SL       H 2424   1.599   3.624   2.889
  162SL       H 2425   1.401   3.764   2.883
  162SL       H 2426   1.493   3.903   2.824
  162SL       H 2427   1.516   3.773   3.100
  162SL       H 2428   1.460   3.938   3.067
  162SL       H 2429   1.718   3.902   3.131
  162SL       H 2430   1.680   4.007   2.992
  163SL       O 2431   2.289   0.687   1.742
  163SL       S 2432   2.416   0.666   1.808
  163SL       O 2433   2.532   0.749   1.781
  163SL       C 2434   2.388   0.659   1.984
  163SL       C 2435   2.452   0.528   2.029
  163SL       C 2436   2.423   0.427   1.918
  163SL       C 2437   2.463   0.495   1.789
  163SL       H 2438   2.434   0.747   2.032
  163SL       H 2439   2.281   0.659   2.001
  163SL       H 2440   2.410   0.495   2.125
  163SL       H 2441   2.560   0.540   2.041
  163SL       H 2442   2.316   0.403   1.917
  163SL       H 2443   2.478   0.333   1.933
  163SL       H 2444   2.413   0.452   1.701
  163SL       H 2445   2.572   0.492   1.775
  164SL       O 2446   0.572   1.151   1.906
  164SL       S 2447   0.486   1.222   1.998
  164SL       O 2448   0.538   1.295   2.111
  164SL       C 2449   0.379   1.330   1.904
  164SL       C 2450   0.237   1.294   1.949
  164SL       C 2451   0.236   1.142   1.970
  164SL       C 2452   0.358   1.111   2.055
  164SL       H 2453   0.404   1.434   1.924
  164SL       H 2454   0.392   1.307   1.798
  164SL       H 2455   0.163   1.325   1.876
  164SL       H 2456   0.214   1.344   2.044
  164SL       H 2457   0.244   1.092   1.872
  164SL       H 2458   0.144   1.108   2.018
  164SL       H 2459   0.392   1.008   2.044
  164SL       H 2460   0.339   1.133   2.160
  165SL       O 2461   2.879   1.945   2.790
  165SL       S 2462   2.772   2.027   2.841
  165SL       O 2463   2.791   2.118   2.952
  165SL       C 2464   2.696   2.114   2.706
  165SL       C 2465   2.548   2.081   2.715
  165SL       C 2466   2.539   1.935   2.759
  165SL       C 2467   2.632   1.922   2.878
  165SL       H 2468   2.716   2.221   2.714
  165SL       H 2469   2.739   2.076   2.613
  165SL       H 2470   2.497   2.098   2.619
  165SL       H 2471   2.499   2.145   2.790
  165SL       H 2472   2.573   1.870   2.676
  165SL       H 2473   2.437   1.906   2.784
  165SL       H 2474   2.666   1.819   2.894
  165SL       H 2475   2.584   1.960   2.969
  166SL       O 2476   3.142   1.644   0.526
  166SL       S 2477   3.053   1.692   0.423
  166SL       O 2478   2.928   1.758   0.454
  166SL       C 2479   3.147   1.796   0.312
  166SL       C 2480   3.121   1.738   0.173
  166SL       C 2481   3.116   1.586   0.191
  166SL       C 2482   3.022   1.561   0.307
  166SL       H 2483   3.114   1.900   0.321
  166SL       H 2484   3.252   1.788   0.339
  166SL       H 2485   3.200   1.768   0.103
  166SL       H 2486   3.025   1.774   0.134
  166SL       H 2487   3.217   1.549   0.215
  166SL       H 2488   3.083   1.536   0.100
  166SL       H 2489   3.039   1.464   0.355
  166SL       H 2490   2.918   1.568   0.275
  167SL       O 2491   0.454   1.852   3.016
  167SL       S 2492   0.443   1.746   3.114
  167SL       O 2493   0.314   1.702   3.164
  167SL       C 2494   0.535   1.605   3.056
  167SL       C 2495   0.629   1.569   3.170
  167SL       C 2496   0.675   1.702   3.230
  167SL       C 2497   0.549   1.783   3.253
  167SL       H 2498   0.466   1.523   3.031
  167SL       H 2499   0.590   1.635   2.967
  167SL       H 2500   0.714   1.510   3.134
  167SL       H 2501   0.577   1.511   3.246
  167SL       H 2502   0.741   1.754   3.159
  167SL       H 2503   0.731   1.688   3.323
  167SL       H 2504   0.567   1.891   3.257
  167SL       H 2505   0.497   1.751   3.343
  168SL       O 2506   0.676   4.120   3.634
  168SL       S 2507   0.608   4.050   3.527
  168SL       O 2508   0.532   4.120   3.425
  168SL       C 2509   0.724   3.940   3.448
  168SL       C 2510   0.657   3.803   3.451
  168SL       C 2511   0.584   3.794   3.585
  168SL       C 2512   0.505   3.923   3.598
  168SL       H 2513   0.744   3.975   3.346
  168SL       H 2514   0.816   3.940   3.507
  168SL       H 2515   0.730   3.723   3.440
  168SL       H 2516   0.585   3.794   3.369
  168SL       H 2517   0.658   3.787   3.667
  168SL       H 2518   0.520   3.706   3.591
  168SL       H 2519   0.481   3.948   3.702
  168SL       H 2520   0.413   3.918   3.539
  169SL       O 2521   2.600   0.928   3.987
  169SL       S 2522   2.697   0.831   3.944
  169SL       O 2523   2.670   0.689   3.945
  169SL       C 2524   2.755   0.877   3.781
  169SL       C 2525   2.907   0.882   3.793
  169SL       C 2526   2.937   0.939   3.932
  169SL       C 2527   2.851   0.860   4.029
  169SL       H 2528   2.721   0.805   3.707
  169SL       H 2529   2.715   0.976   3.758
  169SL       H 2530   2.951   0.944   3.714
  169SL       H 2531   2.949   0.781   3.785
  169SL       H 2532   2.909   1.046   3.934
  169SL       H 2533   3.043   0.932   3.957
  169SL       H 2534   2.832   0.914   4.122
  169SL       H 2535   2.896   0.763   4.050
  170SL       O 2536   0.241   2.612   3.922
  170SL       S 2537   0.359   2.550   3.866
  170SL       O 2538   0.462   2.493   3.950
  170SL       C 2539   0.308   2.429   3.746
  170SL       C 2540   0.384   2.466   3.618
  170SL       C 2541   0.388   2.618   3.614
  170SL       C 2542   0.435   2.663   3.751
  170SL       H 2543   0.332   2.329   3.781
  170SL       H 2544   0.200   2.439   3.731
  170SL       H 2545   0.336   2.424   3.530
  170SL       H 2546   0.486   2.426   3.623
  170SL       H 2547   0.287   2.657   3.593
  170SL       H 2548   0.454   2.655   3.535
  170SL       H 2549   0.405   2.766   3.774
  170SL       H 2550   0.543   2.653   3.761
  171SL       O 2551   1.966   3.480   0.828
  171SL       S 2552   2.010   3.356   0.769
  171SL       O 2553   1.938   3.231   0.790
  171SL       C 2554   2.032   3.381   0.594
  171SL       C 2555   2.174   3.335   0.565
  171SL       C 2556   2.258   3.377   0.685
  171SL       C 2557   2.182   3.330   0.808
  171SL       H 2558   1.957   3.325   0.538
  171SL       H 2559   2.021   3.488   0.574
  171SL       H 2560   2.212   3.378   0.472
  171SL       H 2561   2.176   3.225   0.555
  171SL       H 2562   2.268   3.486   0.686
  171SL       H 2563   2.359   3.334   0.682
  171SL       H 2564   2.208   3.386   0.898
  171SL       H 2565   2.197   3.223   0.825
  172SL       O 2566   0.790   3.299   3.241
  172SL       S 2567   0.653   3.269   3.275
  172SL       O 2568   0.580   3.160   3.211
  172SL       C 2569   0.640   3.252   3.452
  172SL       C 2570   0.528   3.347   3.493
  172SL       C 2571   0.542   3.470   3.403
  172SL       C 2572   0.555   3.418   3.262
  172SL       H 2573   0.618   3.148   3.478
  172SL       H 2574   0.735   3.282   3.496
  172SL       H 2575   0.535   3.373   3.599
  172SL       H 2576   0.430   3.300   3.476
  172SL       H 2577   0.633   3.526   3.432
  172SL       H 2578   0.457   3.538   3.413
  172SL       H 2579   0.604   3.488   3.194
  172SL       H 2580   0.457   3.390   3.221
  173SL       O 2581   0.974   1.527   1.307
  173SL       S 2582   1.111   1.484   1.287
  173SL       O 2583   1.173   1.484   1.156
  173SL       C 2584   1.215   1.573   1.401
  173SL       C 2585   1.293   1.466   1.476
  173SL       C 2586   1.196   1.349   1.496
  173SL       C 2587   1.133   1.323   1.361
  173SL       H 2588   1.280   1.642   1.346
  173SL       H 2589   1.151   1.629   1.469
  173SL       H 2590   1.332   1.503   1.571
  173SL       H 2591   1.378   1.432   1.415
  173SL       H 2592   1.119   1.379   1.570
  173SL       H 2593   1.247   1.261   1.535
  173SL       H 2594   1.036   1.272   1.369
  173SL       H 2595   1.200   1.266   1.297
  174SL       O 2596   3.751   2.945   3.706
  174SL       S 2597   3.810   3.058   3.638
  174SL       O 2598   3.801   3.193   3.690
  174SL       C 2599   3.981   3.020   3.605
  174SL       C 2600   3.999   3.043   3.455
  174SL       C 2601   3.869   2.995   3.390
  174SL       C 2602   3.756   3.058   3.468
  174SL       H 2603   4.046   3.085   3.665
  174SL       H 2604   3.999   2.915   3.631
  174SL       H 2605   4.086   2.990   3.417
  174SL       H 2606   4.013   3.150   3.435
  174SL       H 2607   3.864   2.885   3.397
  174SL       H 2608   3.865   3.021   3.284
  174SL       H 2609   3.662   3.003   3.459
  174SL       H 2610   3.742   3.162   3.438
  175SL       O 2611   0.336   1.216   2.375
  175SL       S 2612   0.279   1.264   2.499
  175SL       O 2613   0.143   1.313   2.506
  175SL       C 2614   0.302   1.138   2.623
  175SL       C 2615   0.372   1.210   2.739
  175SL       C 2616   0.469   1.310   2.675
  175SL       C 2617   0.389   1.384   2.570
  175SL       H 2618   0.206   1.096   2.652
  175SL       H 2619   0.367   1.061   2.582
  175SL       H 2620   0.424   1.140   2.805
  175SL       H 2621   0.298   1.264   2.799
  175SL       H 2622   0.551   1.254   2.628
  175SL       H 2623   0.512   1.378   2.749
  175SL       H 2624   0.452   1.428   2.492
  175SL       H 2625   0.327   1.462   2.616
  176SL       O 2626   0.710   2.682   3.589
  176SL       S 2627   0.762   2.731   3.463
  176SL       O 2628   0.716   2.680   3.336
  176SL       C 2629   0.749   2.909   3.462
  176SL       C 2630   0.889   2.959   3.430
  176SL       C 2631   0.986   2.864   3.502
  176SL       C 2632   0.940   2.724   3.467
  176SL       H 2633   0.675   2.941   3.388
  176SL       H 2634   0.718   2.941   3.562
  176SL       H 2635   0.903   3.063   3.462
  176SL       H 2636   0.907   2.954   3.322
  176SL       H 2637   0.978   2.881   3.611
  176SL       H 2638   1.089   2.882   3.473
  176SL       H 2639   0.973   2.650   3.540
  176SL       H 2640   0.974   2.696   3.367
  177SL       O 2641   2.887   1.593   2.253
  177SL       S 2642   2.913   1.456   2.291
  177SL       O 2643   2.807   1.368   2.336
  177SL       C 2644   3.002   1.377   2.158
  177SL       C 2645   3.126   1.317   2.224
  177SL       C 2646   3.170   1.418   2.330
  177SL       C 2647   3.046   1.452   2.409
  177SL       H 2648   2.939   1.301   2.110
  177SL       H 2649   3.030   1.453   2.085
  177SL       H 2650   3.205   1.299   2.150
  177SL       H 2651   3.102   1.222   2.271
  177SL       H 2652   3.210   1.508   2.280
  177SL       H 2653   3.249   1.378   2.394
  177SL       H 2654   3.053   1.549   2.460
  177SL       H 2655   3.023   1.374   2.482
  178SL       O 2656   3.094   0.760   2.702
  178SL       S 2657   3.183   0.662   2.645
  178SL       O 2658   3.148   0.521   2.637
  178SL       C 2659   3.232   0.718   2.483
  178SL       C 2660   3.385   0.715   2.484
  178SL       C 2661   3.427   0.759   2.624
  178SL       C 2662   3.344   0.677   2.721
  178SL       H 2663   3.190   0.653   2.406
  178SL       H 2664   3.196   0.820   2.469
  178SL       H 2665   3.427   0.780   2.407
  178SL       H 2666   3.421   0.613   2.466
  178SL       H 2667   3.404   0.866   2.637
  178SL       H 2668   3.534   0.745   2.641
  178SL       H 2669   3.334   0.724   2.819
  178SL       H 2670   3.385   0.576   2.732
  179SL       O 2671   3.077   2.318   3.995
  179SL       S 2672   3.034   2.399   3.883
  179SL       O 2673   3.091   2.384   3.750
  179SL       C 2674   2.856   2.390   3.872
  179SL       C 2675   2.809   2.535   3.871
  179SL       C 2676   2.901   2.610   3.968
  179SL       C 2677   3.042   2.571   3.929
  179SL       H 2678   2.827   2.336   3.781
  179SL       H 2679   2.819   2.337   3.960
  179SL       H 2680   2.704   2.543   3.902
  179SL       H 2681   2.819   2.578   3.771
  179SL       H 2682   2.880   2.577   4.071
  179SL       H 2683   2.886   2.718   3.963
  179SL       H 2684   3.114   2.584   4.011
  179SL       H 2685   3.076   2.628   3.842
  180SL       O 2686   1.810   1.778   0.894
  180SL       S 2687   1.895   1.801   1.008
  180SL       O 2688   1.899   1.711   1.121
  180SL       C 2689   2.062   1.826   0.949
  180SL       C 2690   2.106   1.959   1.011
  180SL       C 2691   1.982   2.049   1.009
  180SL       C 2692   1.870   1.967   1.068
  180SL       H 2693   2.126   1.743   0.980
  180SL       H 2694   2.059   1.833   0.840
  180SL       H 2695   2.189   2.003   0.955
  180SL       H 2696   2.139   1.944   1.114
  180SL       H 2697   1.959   2.077   0.905
  180SL       H 2698   1.998   2.142   1.065
  180SL       H 2699   1.771   2.002   1.037
  180SL       H 2700   1.876   1.965   1.177
  181SL       O 2701   0.909   2.023   3.767
  181SL       S 2702   0.958   2.073   3.640
  181SL       O 2703   1.055   1.999   3.562
  181SL       C 2704   0.818   2.113   3.537
  181SL       C 2705   0.841   2.257   3.493
  181SL       C 2706   0.903   2.329   3.613
  181SL       C 2707   1.016   2.240   3.661
  181SL       H 2708   0.812   2.044   3.452
  181SL       H 2709   0.727   2.105   3.597
  181SL       H 2710   0.748   2.305   3.461
  181SL       H 2711   0.912   2.260   3.409
  181SL       H 2712   0.827   2.339   3.692
  181SL       H 2713   0.938   2.429   3.588
  181SL       H 2714   1.042   2.257   3.766
  181SL       H 2715   1.105   2.252   3.599
  182SL       O 2716   1.928   2.288   1.909
  182SL       S 2717   1.850   2.372   1.821
  182SL       O 2718   1.862   2.365   1.677
  182SL       C 2719   1.678   2.355   1.865
  182SL       C 2720   1.629   2.498   1.888
  182SL       C 2721   1.745   2.573   1.955
  182SL       C 2722   1.867   2.542   1.872
  182SL       H 2723   1.623   2.304   1.786
  182SL       H 2724   1.672   2.297   1.958
  182SL       H 2725   1.539   2.500   1.950
  182SL       H 2726   1.605   2.546   1.792
  182SL       H 2727   1.758   2.535   2.057
  182SL       H 2728   1.726   2.680   1.961
  182SL       H 2729   1.961   2.554   1.928
  182SL       H 2730   1.870   2.604   1.781
  183SL       O 2731   1.029   3.310   1.886
  183SL       S 2732   1.140   3.221   1.861
  183SL       O 2733   1.256   3.217   1.948
  183SL       C 2734   1.076   3.055   1.842
  183SL       C 2735   1.132   3.006   1.709
  183SL       C 2736   1.130   3.127   1.615
  183SL       C 2737   1.194   3.240   1.692
  183SL       H 2738   1.108   2.993   1.926
  183SL       H 2739   0.967   3.061   1.839
  183SL       H 2740   1.072   2.923   1.669
  183SL       H 2741   1.235   2.971   1.721
  183SL       H 2742   1.025   3.153   1.591
  183SL       H 2743   1.182   3.107   1.522
  183SL       H 2744   1.165   3.339   1.656
  183SL       H 2745   1.303   3.232   1.691
  184SL       O 2746   3.467   2.413   1.641
  184SL       S 2747   3.356   2.419   1.733
  184SL       O 2748   3.286   2.543   1.760
  184SL       C 2749   3.238   2.293   1.687
  184SL       C 2750   3.215   2.213   1.815
  184SL       C 2751   3.351   2.204   1.885
  184SL       C 2752   3.405   2.346   1.888
  184SL       H 2753   3.146   2.340   1.650
  184SL       H 2754   3.283   2.231   1.609
  184SL       H 2755   3.175   2.113   1.792
  184SL       H 2756   3.144   2.264   1.880
  184SL       H 2757   3.418   2.139   1.826
  184SL       H 2758   3.343   2.162   1.985
  184SL       H 2759   3.514   2.349   1.897
  184SL       H 2760   3.359   2.404   1.968
  185SL       O 2761   2.821   3.612   2.972
  185SL       S 2762   2.856   3.752   2.969
  185SL       O 2763   2.994   3.796   2.962
  185SL       C 2764   2.763   3.831   2.839
  185SL       C 2765   2.693   3.949   2.907
  185SL       C 2766   2.653   3.900   3.046
  185SL       C 2767   2.776   3.835   3.105
  185SL       H 2768   2.830   3.863   2.759
  185SL       H 2769   2.690   3.760   2.801
  185SL       H 2770   2.607   3.983   2.849
  185SL       H 2771   2.763   4.034   2.916
  185SL       H 2772   2.572   3.826   3.036
  185SL       H 2773   2.616   3.981   3.109
  185SL       H 2774   2.753   3.763   3.184
  185SL       H 2775   2.846   3.911   3.143
  186SL       O 2776   0.354   1.787   0.441
  186SL       S 2777   0.423   1.868   0.344
  186SL       O 2778   0.557   1.836   0.298
  186SL       C 2779   0.318   1.889   0.202
  186SL       C 2780   0.310   2.040   0.180
  186SL       C 2781   0.307   2.103   0.319
  186SL       C 2782   0.420   2.039   0.397
  186SL       H 2783   0.359   1.837   0.115
  186SL       H 2784   0.219   1.849   0.226
  186SL       H 2785   0.222   2.068   0.121
  186SL       H 2786   0.399   2.075   0.126
  186SL       H 2787   0.210   2.080   0.367
  186SL       H 2788   0.317   2.212   0.315
  186SL       H 2789   0.405   2.043   0.505
  186SL       H 2790   0.516   2.083   0.370
  187SL       O 2791   1.612   3.456   3.439
  187SL       S 2792   1.479   3.508   3.420
  187SL       O 2793   1.405   3.573   3.526
  187SL       C 2794   1.480   3.614   3.277
  187SL       C 2795   1.369   3.561   3.187
  187SL       C 2796   1.373   3.409   3.200
  187SL       C 2797   1.376   3.380   3.349
  187SL       H 2798   1.464   3.718   3.307
  187SL       H 2799   1.578   3.605   3.228
  187SL       H 2800   1.383   3.593   3.083
  187SL       H 2801   1.272   3.599   3.221
  187SL       H 2802   1.464   3.370   3.152
  187SL       H 2803   1.287   3.361   3.152
  187SL       H 2804   1.418   3.282   3.372
  187SL       H 2805   1.277   3.389   3.393
  188SL       O 2806   1.512   3.672   1.193
  188SL       S 2807   1.521   3.712   1.054
  188SL       O 2808   1.546   3.849   1.015
  188SL       C 2809   1.639   3.606   0.972
  188SL       C 2810   1.564   3.549   0.852
  188SL       C 2811   1.420   3.526   0.898
  188SL       C 2812   1.377   3.653   0.967
  188SL       H 2813   1.727   3.663   0.943
  188SL       H 2814   1.666   3.526   1.041
  188SL       H 2815   1.610   3.457   0.815
  188SL       H 2816   1.564   3.622   0.770
  188SL       H 2817   1.419   3.441   0.970
  188SL       H 2818   1.354   3.500   0.815
  188SL       H 2819   1.295   3.638   1.038
  188SL       H 2820   1.348   3.730   0.894
  189SL       O 2821   0.403   2.823   1.727
  189SL       S 2822   0.429   2.959   1.687
  189SL       O 2823   0.536   2.992   1.595
  189SL       C 2824   0.278   3.031   1.627
  189SL       C 2825   0.261   3.160   1.707
  189SL       C 2826   0.310   3.129   1.848
  189SL       C 2827   0.445   3.062   1.832
  189SL       H 2828   0.284   3.049   1.519
  189SL       H 2829   0.196   2.961   1.648
  189SL       H 2830   0.156   3.193   1.707
  189SL       H 2831   0.322   3.240   1.663
  189SL       H 2832   0.239   3.060   1.897
  189SL       H 2833   0.317   3.218   1.910
  189SL       H 2834   0.473   3.000   1.918
  189SL       H 2835   0.523   3.135   1.812
  190SL       O 2836   2.540   1.604   0.974
  190SL       S 2837   2.525   1.674   1.099
  190SL       O 2838   2.495   1.605   1.223
  190SL       C 2839   2.668   1.778   1.124
  190SL       C 2840   2.611   1.918   1.149
  190SL       C 2841   2.490   1.931   1.057
  190SL       C 2842   2.407   1.806   1.078
  190SL       H 2843   2.727   1.741   1.208
  190SL       H 2844   2.727   1.776   1.032
  190SL       H 2845   2.686   1.995   1.129
  190SL       H 2846   2.579   1.927   1.253
  190SL       H 2847   2.524   1.937   0.952
  190SL       H 2848   2.432   2.022   1.078
  190SL       H 2849   2.342   1.784   0.993
  190SL       H 2850   2.348   1.813   1.170
  191SL       O 2851   0.864   3.083   0.833
  191SL       S 2852   0.832   3.175   0.939
  191SL       O 2853   0.827   3.134   1.078
  191SL       C 2854   0.938   3.317   0.925
  191SL       C 2855   0.844   3.437   0.922
  191SL       C 2856   0.722   3.393   0.842
  191SL       C 2857   0.680   3.260   0.900
  191SL       H 2858   1.008   3.321   1.009
  191SL       H 2859   0.993   3.309   0.831
  191SL       H 2860   0.892   3.525   0.877
  191SL       H 2861   0.814   3.464   1.024
  191SL       H 2862   0.750   3.382   0.736
  191SL       H 2863   0.641   3.466   0.847
  191SL       H 2864   0.621   3.199   0.829
  191SL       H 2865   0.624   3.273   0.992
  192SL       O 2866   1.203   4.062   1.750
  192SL       S 2867   1.204   3.951   1.842
  192SL       O 2868   1.242   3.817   1.800
  192SL       C 2869   1.302   3.997   1.984
  192SL       C 2870   1.212   3.971   2.104
  192SL       C 2871   1.071   4.010   2.061
  192SL       C 2872   1.048   3.943   1.927
  192SL       H 2873   1.394   3.938   1.987
  192SL       H 2874   1.326   4.103   1.976
  192SL       H 2875   1.244   4.028   2.192
  192SL       H 2876   1.214   3.864   2.130
  192SL       H 2877   1.065   4.120   2.049
  192SL       H 2878   0.995   3.981   2.134
  192SL       H 2879   0.971   3.992   1.867
  192SL       H 2880   1.022   3.837   1.940
  193SL       O 2881   2.094   2.252   1.505
  193SL       S 2882   2.160   2.216   1.382
  193SL       O 2883   2.087   2.204   1.257
  193SL       C 2884   2.298   2.327   1.357
  193SL       C 2885   2.418   2.235   1.335
  193SL       C 2886   2.399   2.116   1.429
  193SL       C 2887   2.257   2.069   1.407
  193SL       H 2888   2.279   2.392   1.272
  193SL       H 2889   2.310   2.386   1.448
  193SL       H 2890   2.512   2.288   1.356
  193SL       H 2891   2.421   2.200   1.232
  193SL       H 2892   2.412   2.149   1.534
  193SL       H 2893   2.471   2.037   1.410
  193SL       H 2894   2.217   2.013   1.492
  193SL       H 2895   2.249   2.008   1.316
  194SL       O 2896   1.989   3.907   2.375
  194SL       S 2897   1.894   3.878   2.270
  194SL       O 2898   1.781   3.789   2.291
  194SL       C 2899   1.834   4.032   2.202
  194SL       C 2900   1.858   4.021   2.052
  194SL       C 2901   1.991   3.948   2.035
  194SL       C 2902   1.982   3.825   2.124
  194SL       H 2903   1.728   4.045   2.227
  194SL       H 2904   1.893   4.113   2.245
  194SL       H 2905   1.861   4.120   2.005
  194SL       H 2906   1.778   3.963   2.005
  194SL       H 2907   2.073   4.013   2.069
  194SL       H 2908   2.010   3.921   1.931
  194SL       H 2909   2.081   3.786   2.153
  194SL       H 2910   1.924   3.746   2.076
  195SL       O 2911   3.885   3.412   1.281
  195SL       S 2912   3.882   3.439   1.139
  195SL       O 2913   3.829   3.343   1.044
  195SL       C 2914   3.803   3.596   1.114
  195SL       C 2915   3.902   3.677   1.030
  195SL       C 2916   4.041   3.641   1.081
  195SL       C 2917   4.045   3.489   1.087
  195SL       H 2918   3.707   3.583   1.063
  195SL       H 2919   3.787   3.643   1.211
  195SL       H 2920   3.883   3.785   1.038
  195SL       H 2921   3.893   3.649   0.924
  195SL       H 2922   4.055   3.682   1.182
  195SL       H 2923   4.120   3.681   1.018
  195SL       H 2924   4.120   3.451   1.156
  195SL       H 2925   4.062   3.447   0.987
  196SL       O 2926   3.961   0.513   3.472
  196SL       S 2927   3.839   0.574   3.423
  196SL       O 2928   3.828   0.627   3.289
  196SL       C 2929   3.704   0.461   3.453
  196SL       C 2930   3.601   0.543   3.530
  196SL       C 2931   3.680   0.634   3.624
  196SL       C 2932   3.786   0.699   3.539
  196SL       H 2933   3.666   0.423   3.358
  196SL       H 2934   3.742   0.378   3.514
  196SL       H 2935   3.532   0.478   3.585
  196SL       H 2936   3.542   0.604   3.461
  196SL       H 2937   3.727   0.572   3.703
  196SL       H 2938   3.616   0.707   3.673
  196SL       H 2939   3.872   0.734   3.597
  196SL       H 2940   3.745   0.782   3.481
  197SL       O 2941   1.399   3.482   1.211
  197SL       S 2942   1.288   3.544   1.279
  197SL       O 2943   1.290   3.683   1.319
  197SL       C 2944   1.140   3.513   1.184
  197SL       C 2945   1.042   3.452   1.283
  197SL       C 2946   1.124   3.361   1.375
  197SL       C 2947   1.242   3.445   1.420
  197SL       H 2948   1.103   3.606   1.141
  197SL       H 2949   1.164   3.442   1.105
  197SL       H 2950   0.963   3.395   1.232
  197SL       H 2951   0.994   3.530   1.343
  197SL       H 2952   1.160   3.274   1.318
  197SL       H 2953   1.066   3.324   1.460
  197SL       H 2954   1.328   3.384   1.452
  197SL       H 2955   1.213   3.513   1.501
  198SL       O 2956   2.646   1.832   0.802
  198SL       S 2957   2.718   1.928   0.722
  198SL       O 2958   2.676   1.963   0.587
  198SL       C 2959   2.738   2.078   0.817
  198SL       C 2960   2.888   2.107   0.813
  198SL       C 2961   2.958   1.971   0.821
  198SL       C 2962   2.891   1.884   0.718
  198SL       H 2963   2.679   2.158   0.773
  198SL       H 2964   2.705   2.058   0.919
  198SL       H 2965   2.918   2.172   0.896
  198SL       H 2966   2.915   2.156   0.719
  198SL       H 2967   2.943   1.929   0.922
  198SL       H 2968   3.065   1.979   0.804
  198SL       H 2969   2.901   1.777   0.739
  198SL       H 2970   2.928   1.906   0.617
  199SL       O 2971   1.042   3.826   3.848
  199SL       S 2972   0.948   3.854   3.954
  199SL       O 2973   0.984   3.935   4.069
  199SL       C 2974   0.799   3.920   3.881
  199SL       C 2975   0.687   3.832   3.936
  199SL       C 2976   0.743   3.690   3.942
  199SL       C 2977   0.877   3.701   4.011
  199SL       H 2978   0.787   4.025   3.909
  199SL       H 2979   0.807   3.910   3.773
  199SL       H 2980   0.598   3.837   3.873
  199SL       H 2981   0.659   3.864   4.037
  199SL       H 2982   0.756   3.652   3.839
  199SL       H 2983   0.676   3.621   3.994
  199SL       H 2984   0.945   3.618   3.987
  199SL       H 2985   0.865   3.708   4.119
  200SL       O 2986   2.717   0.986   0.364
  200SL       S 2987   2.702   1.056   0.239
  200SL       O 2988   2.715   0.989   0.111
  200SL       C 2989   2.548   1.146   0.242
  200SL       C 2990   2.585   1.290   0.208
  200SL       C 2991   2.720   1.316   0.276
  200SL       C 2992   2.809   1.200   0.239
  200SL       H 2993   2.478   1.103   0.170
  200SL       H 2994   2.507   1.139   0.343
  200SL       H 2995   2.508   1.360   0.242
  200SL       H 2996   2.596   1.302   0.100
  200SL       H 2997   2.705   1.320   0.386
  200SL       H 2998   2.763   1.412   0.246
  200SL       H 2999   2.891   1.184   0.310
  200SL       H 3000   2.849   1.212   0.138
  201SL       O 3001   3.140   3.623   2.836
  201SL       S 3002   3.044   3.544   2.764
  201SL       O 3003   2.939   3.605   2.685
  201SL       C 3004   3.131   3.426   2.663
  201SL       C 3005   3.072   3.291   2.700
  201SL       C 3006   3.045   3.296   2.850
  201SL       C 3007   2.971   3.425   2.875
  201SL       H 3008   3.118   3.450   2.557
  201SL       H 3009   3.237   3.431   2.690
  201SL       H 3010   3.140   3.209   2.674
  201SL       H 3011   2.978   3.275   2.646
  201SL       H 3012   3.141   3.296   2.905
  201SL       H 3013   2.988   3.209   2.885
  201SL       H 3014   2.980   3.461   2.978
  201SL       H 3015   2.865   3.415   2.849
  202SL       O 3016   3.970   3.863   4.034
  202SL       S 3017   3.870   3.830   3.936
  202SL       O 3018   3.749   3.759   3.971
  202SL       C 3019   3.827   3.978   3.846
  202SL       C 3020   3.846   3.942   3.699
  202SL       C 3021   3.969   3.852   3.693
  202SL       C 3022   3.949   3.746   3.799
  202SL       H 3023   3.724   4.007   3.869
  202SL       H 3024   3.896   4.057   3.876
  202SL       H 3025   3.859   4.032   3.638
  202SL       H 3026   3.758   3.888   3.662
  202SL       H 3027   4.059   3.911   3.715
  202SL       H 3028   3.983   3.808   3.594
  202SL       H 3029   4.042   3.701   3.833
  202SL       H 3030   3.880   3.668   3.764
  203SL       O 3031   1.722   2.566   2.368
  203SL       S 3032   1.856   2.611   2.398
  203SL       O 3033   1.884   2.709   2.502
  203SL       C 3034   1.959   2.468   2.425
  203SL       C 3035   2.077   2.485   2.330
  203SL       C 3036   2.020   2.547   2.202
  203SL       C 3037   1.935   2.664   2.247
  203SL       H 3038   1.990   2.462   2.529
  203SL       H 3039   1.901   2.379   2.398
  203SL       H 3040   2.127   2.390   2.310
  203SL       H 3041   2.151   2.553   2.374
  203SL       H 3042   1.958   2.473   2.150
  203SL       H 3043   2.099   2.579   2.133
  203SL       H 3044   1.859   2.692   2.173
  203SL       H 3045   1.997   2.751   2.271
  204SL       O 3046   3.055   0.607   1.705
  204SL       S 3047   3.034   0.648   1.568
  204SL       O 3048   3.050   0.556   1.457
  204SL       C 3049   2.874   0.725   1.556
  204SL       C 3050   2.901   0.861   1.492
  204SL       C 3051   3.034   0.910   1.549
  204SL       C 3052   3.130   0.794   1.536
  204SL       H 3053   2.806   0.663   1.497
  204SL       H 3054   2.834   0.738   1.657
  204SL       H 3055   2.819   0.932   1.512
  204SL       H 3056   2.910   0.850   1.383
  204SL       H 3057   3.020   0.936   1.656
  204SL       H 3058   3.070   0.999   1.498
  204SL       H 3059   3.214   0.800   1.606
  204SL       H 3060   3.168   0.787   1.433
  205SL       O 3061   2.825   3.731   1.816
  205SL       S 3062   2.901   3.797   1.920
  205SL       O 3063   2.885   3.764   2.060
  205SL       C 3064   3.074   3.787   1.877
  205SL       C 3065   3.124   3.931   1.882
  205SL       C 3066   3.011   4.017   1.827
  205SL       C 3067   2.886   3.973   1.900
  205SL       H 3068   3.127   3.722   1.948
  205SL       H 3069   3.082   3.746   1.776
  205SL       H 3070   3.216   3.943   1.824
  205SL       H 3071   3.146   3.960   1.986
  205SL       H 3072   3.000   3.999   1.719
  205SL       H 3073   3.030   4.124   1.841
  205SL       H 3074   2.794   3.996   1.845
  205SL       H 3075   2.881   4.017   2.000
  206SL       O 3076   3.401   2.271   3.536
  206SL       S 3077   3.431   2.410   3.563
  206SL       O 3078   3.478   2.453   3.693
  206SL       C 3079   3.544   2.469   3.438
  206SL       C 3080   3.479   2.594   3.382
  206SL       C 3081   3.329   2.566   3.378
  206SL       C 3082   3.293   2.511   3.515
  206SL       H 3083   3.642   2.489   3.483
  206SL       H 3084   3.553   2.392   3.361
  206SL       H 3085   3.518   2.618   3.283
  206SL       H 3086   3.498   2.680   3.448
  206SL       H 3087   3.308   2.490   3.300
  206SL       H 3088   3.271   2.655   3.354
  206SL       H 3089   3.202   2.451   3.514
  206SL       H 3090   3.284   2.592   3.588
  207SL       O 3091   0.288   2.988   1.257
  207SL       S 3092   0.224   3.093   1.181
  207SL       O 3093   0.100   3.071   1.110
  207SL       C 3094   0.206   3.236   1.286
  207SL       C 3095   0.270   3.351   1.209
  207SL       C 3096   0.392   3.291   1.138
  207SL       C 3097   0.343   3.165   1.069
  207SL       H 3098   0.100   3.254   1.308
  207SL       H 3099   0.260   3.217   1.379
  207SL       H 3100   0.298   3.433   1.275
  207SL       H 3101   0.200   3.390   1.134
  207SL       H 3102   0.469   3.266   1.213
  207SL       H 3103   0.436   3.361   1.067
  207SL       H 3104   0.423   3.093   1.050
  207SL       H 3105   0.291   3.189   0.976
  208SL       O 3106   3.153   1.468   4.107
  208SL       S 3107   3.262   1.396   4.045
  208SL       O 3108   3.379   1.355   4.120
  208SL       C 3109   3.195   1.255   3.959
  208SL       C 3110   3.249   1.267   3.816
  208SL       C 3111   3.249   1.416   3.783
  208SL       C 3112   3.316   1.485   3.900
  208SL       H 3113   3.226   1.163   4.008
  208SL       H 3114   3.086   1.263   3.960
  208SL       H 3115   3.188   1.209   3.746
  208SL       H 3116   3.351   1.228   3.812
  208SL       H 3117   3.145   1.451   3.773
  208SL       H 3118   3.300   1.437   3.689
  208SL       H 3119   3.288   1.590   3.908
  208SL       H 3120   3.425   1.476   3.893
  209SL       O 3121   1.986   1.812   3.254
  209SL       S 3122   2.013   1.876   3.381
  209SL       O 3123   1.964   1.822   3.506
  209SL       C 3124   2.189   1.902   3.394
  209SL       C 3125   2.205   2.051   3.426
  209SL       C 3126   2.097   2.123   3.345
  209SL       C 3127   1.968   2.048   3.371
  209SL       H 3128   2.231   1.838   3.473
  209SL       H 3129   2.235   1.878   3.298
  209SL       H 3130   2.305   2.087   3.400
  209SL       H 3131   2.188   2.069   3.533
  209SL       H 3132   2.123   2.117   3.237
  209SL       H 3133   2.089   2.228   3.372
  209SL       H 3134   1.894   2.062   3.292
  209SL       H 3135   1.925   2.077   3.468
  210SL       O 3136   3.631   1.218   1.368
  210SL       S 3137   3.492   1.209   1.329
  210SL       O 3138   3.453   1.199   1.190
  210SL       C 3139   3.416   1.077   1.421
  210SL       C 3140   3.293   1.141   1.487
  210SL       C 3141   3.336   1.282   1.527
  210SL       C 3142   3.402   1.343   1.405
  210SL       H 3143   3.389   0.995   1.354
  210SL       H 3144   3.486   1.042   1.496
  210SL       H 3145   3.260   1.083   1.573
  210SL       H 3146   3.211   1.147   1.415
  210SL       H 3147   3.408   1.276   1.610
  210SL       H 3148   3.251   1.342   1.561
  210SL       H 3149   3.471   1.424   1.430
  210SL       H 3150   3.327   1.377   1.333
  211SL       O 3151   1.607   0.436   3.282
  211SL       S 3152   1.583   0.303   3.335
  211SL       O 3153   1.685   0.229   3.406
  211SL       C 3154   1.435   0.308   3.435
  211SL       C 3155   1.346   0.198   3.379
  211SL       C 3156   1.366   0.199   3.228
  211SL       C 3157   1.516   0.200   3.206
  211SL       H 3158   1.461   0.292   3.540
  211SL       H 3159   1.389   0.406   3.422
  211SL       H 3160   1.241   0.214   3.406
  211SL       H 3161   1.377   0.100   3.419
  211SL       H 3162   1.321   0.291   3.186
  211SL       H 3163   1.319   0.114   3.179
  211SL       H 3164   1.545   0.241   3.108
  211SL       H 3165   1.558   0.100   3.218
  212SL       O 3166   2.368   2.516   4.105
  212SL       S 3167   2.335   2.649   4.059
  212SL       O 3168   2.391   2.767   4.120
  212SL       C 3169   2.363   2.655   3.883
  212SL       C 3170   2.232   2.706   3.824
  212SL       C 3171   2.120   2.643   3.907
  212SL       C 3172   2.158   2.666   4.052
  212SL       H 3173   2.447   2.721   3.861
  212SL       H 3174   2.384   2.554   3.848
  212SL       H 3175   2.223   2.680   3.718
  212SL       H 3176   2.226   2.815   3.833
  212SL       H 3177   2.116   2.534   3.886
  212SL       H 3178   2.022   2.685   3.883
  212SL       H 3179   2.111   2.594   4.120
  212SL       H 3180   2.133   2.768   4.083
  213SL       O 3181   2.324   0.686   0.566
  213SL       S 3182   2.210   0.621   0.626
  213SL       O 3183   2.133   0.684   0.731
  213SL       C 3184   2.099   0.570   0.496
  213SL       C 3185   2.076   0.421   0.521
  213SL       C 3186   2.210   0.364   0.569
  213SL       C 3187   2.257   0.458   0.679
  213SL       H 3188   2.007   0.628   0.500
  213SL       H 3189   2.149   0.586   0.400
  213SL       H 3190   2.041   0.370   0.430
  213SL       H 3191   2.000   0.407   0.599
  213SL       H 3192   2.281   0.364   0.486
  213SL       H 3193   2.200   0.262   0.605
  213SL       H 3194   2.365   0.454   0.694
  213SL       H 3195   2.206   0.437   0.773
  214SL       O 3196   2.844   1.218   0.523
  214SL       S 3197   2.872   1.297   0.640
  214SL       O 3198   2.981   1.264   0.730
  214SL       C 3199   2.886   1.468   0.591
  214SL       C 3200   2.789   1.543   0.681
  214SL       C 3201   2.668   1.452   0.698
  214SL       C 3202   2.722   1.316   0.735
  214SL       H 3203   2.990   1.502   0.603
  214SL       H 3204   2.856   1.476   0.486
  214SL       H 3205   2.761   1.640   0.638
  214SL       H 3206   2.835   1.562   0.779
  214SL       H 3207   2.613   1.446   0.603
  214SL       H 3208   2.598   1.490   0.774
  214SL       H 3209   2.653   1.234   0.712
  214SL       H 3210   2.750   1.312   0.841
  215SL       O 3211   2.183   1.329   1.844
  215SL       S 3212   2.158   1.467   1.811
  215SL       O 3213   2.136   1.510   1.674
  215SL       C 3214   2.022   1.525   1.911
  215SL       C 3215   2.075   1.651   1.979
  215SL       C 3216   2.222   1.624   2.011
  215SL       C 3217   2.283   1.569   1.884
  215SL       H 3218   1.935   1.544   1.849
  215SL       H 3219   2.000   1.448   1.985
  215SL       H 3220   2.018   1.675   2.069
  215SL       H 3221   2.068   1.736   1.910
  215SL       H 3222   2.228   1.549   2.092
  215SL       H 3223   2.274   1.714   2.046
  215SL       H 3224   2.373   1.510   1.902
  215SL       H 3225   2.306   1.650   1.814
  216SL       O 3226   3.185   3.666   3.619
  216SL       S 3227   3.288   3.592   3.689
  216SL       O 3228   3.259   3.468   3.759
  216SL       C 3229   3.424   3.566   3.578
  216SL       C 3230   3.547   3.619   3.652
  216SL       C 3231   3.500   3.743   3.728
  216SL       C 3232   3.373   3.702   3.801
  216SL       H 3233   3.433   3.460   3.553
  216SL       H 3234   3.406   3.624   3.487
  216SL       H 3235   3.628   3.642   3.583
  216SL       H 3236   3.583   3.543   3.723
  216SL       H 3237   3.478   3.823   3.656
  216SL       H 3238   3.576   3.779   3.797
  216SL       H 3239   3.309   3.786   3.825
  216SL       H 3240   3.397   3.645   3.891
  217SL       O 3241   3.989   3.241   2.765
  217SL       S 3242   3.856   3.237   2.709
  217SL       O 3243   3.823   3.300   2.582
  217SL       C 3244   3.802   3.067   2.704
  217SL       C 3245   3.667   3.066   2.777
  217SL       C 3246   3.681   3.166   2.892
  217SL       C 3247   3.739   3.292   2.832
  217SL       H 3248   3.793   3.033   2.600
  217SL       H 3249   3.875   3.007   2.757
  217SL       H 3250   3.642   2.966   2.812
  217SL       H 3251   3.588   3.099   2.709
  217SL       H 3252   3.750   3.124   2.968
  217SL       H 3253   3.585   3.184   2.941
  217SL       H 3254   3.790   3.355   2.906
  217SL       H 3255   3.661   3.350   2.781
  218SL       O 3256   0.263   0.822   3.694
  218SL       S 3257   0.310   0.919   3.598
  218SL       O 3258   0.366   0.881   3.470
  218SL       C 3259   0.180   1.038   3.571
  218SL       C 3260   0.244   1.174   3.596
  218SL       C 3261   0.341   1.154   3.713
  218SL       C 3262   0.422   1.031   3.679
  218SL       H 3263   0.141   1.029   3.469
  218SL       H 3264   0.100   1.019   3.643
  218SL       H 3265   0.169   1.251   3.619
  218SL       H 3266   0.300   1.207   3.508
  218SL       H 3267   0.283   1.136   3.806
  218SL       H 3268   0.404   1.241   3.730
  218SL       H 3269   0.466   0.983   3.767
  218SL       H 3270   0.502   1.056   3.608
  219SL       O 3271   3.524   2.055   0.657
  219SL       S 3272   3.468   2.128   0.769
  219SL       O 3273   3.469   2.273   0.774
  219SL       C 3274   3.301   2.071   0.796
  219SL       C 3275   3.297   2.032   0.944
  219SL       C 3276   3.433   1.969   0.975
  219SL       C 3277   3.536   2.065   0.921
  219SL       H 3278   3.230   2.150   0.772
  219SL       H 3279   3.284   1.984   0.733
  219SL       H 3280   3.215   1.962   0.964
  219SL       H 3281   3.282   2.121   1.006
  219SL       H 3282   3.440   1.871   0.924
  219SL       H 3283   3.446   1.951   1.082
  219SL       H 3284   3.633   2.016   0.900
  219SL       H 3285   3.551   2.149   0.988
  220SL       O 3286   2.637   2.741   1.194
  220SL       S 3287   2.668   2.611   1.250
  220SL       O 3288   2.579   2.498   1.234
  220SL       C 3289   2.831   2.564   1.196
  220SL       C 3290   2.907   2.530   1.325
  220SL       C 3291   2.859   2.631   1.430
  220SL       C 3292   2.708   2.629   1.422
  220SL       H 3293   2.826   2.479   1.128
  220SL       H 3294   2.877   2.650   1.146
  220SL       H 3295   3.015   2.536   1.310
  220SL       H 3296   2.882   2.429   1.357
  220SL       H 3297   2.897   2.731   1.404
  220SL       H 3298   2.895   2.606   1.530
  220SL       H 3299   2.662   2.721   1.461
  220SL       H 3300   2.667   2.543   1.475
  221SL       O 3301   0.100   2.802   0.681
  221SL       S 3302   0.230   2.742   0.697
  221SL       O 3303   0.268   2.621   0.626
  221SL       C 3304   0.354   2.866   0.670
  221SL       C 3305   0.443   2.861   0.794
  221SL       C 3306   0.350   2.835   0.912
  221SL       C 3307   0.263   2.718   0.871
  221SL       H 3308   0.410   2.845   0.578
  221SL       H 3309   0.304   2.963   0.662
  221SL       H 3310   0.499   2.955   0.807
  221SL       H 3311   0.516   2.779   0.785
  221SL       H 3312   0.287   2.924   0.930
  221SL       H 3313   0.405   2.813   1.004
  221SL       H 3314   0.168   2.714   0.926
  221SL       H 3315   0.316   2.623   0.882
  222SL       O 3316   3.717   3.228   0.405
  222SL       S 3317   3.699   3.130   0.301
  222SL       O 3318   3.584   3.132   0.213
  222SL       C 3319   3.847   3.123   0.203
  222SL       C 3320   3.888   2.976   0.202
  222SL       C 3321   3.856   2.922   0.341
  222SL       C 3322   3.714   2.966   0.371
  222SL       H 3323   3.828   3.162   0.102
  222SL       H 3324   3.923   3.184   0.252
  222SL       H 3325   3.994   2.964   0.177
  222SL       H 3326   3.830   2.922   0.127
  222SL       H 3327   3.926   2.967   0.414
  222SL       H 3328   3.866   2.814   0.346
  222SL       H 3329   3.693   2.970   0.478
  222SL       H 3330   3.642   2.902   0.321
  223SL       O 3331   1.544   3.089   2.915
  223SL       S 3332   1.678   3.037   2.904
  223SL       O 3333   1.715   2.909   2.961
  223SL       C 3334   1.727   3.042   2.733
  223SL       C 3335   1.860   3.118   2.732
  223SL       C 3336   1.846   3.228   2.838
  223SL       C 3337   1.793   3.160   2.962
  223SL       H 3338   1.737   2.940   2.694
  223SL       H 3339   1.651   3.096   2.677
  223SL       H 3340   1.882   3.159   2.633
  223SL       H 3341   1.942   3.051   2.760
  223SL       H 3342   1.774   3.304   2.802
  223SL       H 3343   1.941   3.278   2.856
  223SL       H 3344   1.742   3.229   3.030
  223SL       H 3345   1.873   3.108   3.016
  224SL       O 3346   3.154   1.759   1.550
  224SL       S 3347   3.276   1.803   1.487
  224SL       O 3348   3.374   1.883   1.557
  224SL       C 3349   3.356   1.661   1.414
  224SL       C 3350   3.380   1.699   1.269
  224SL       C 3351   3.257   1.780   1.225
  224SL       C 3352   3.235   1.884   1.333
  224SL       H 3353   3.450   1.640   1.468
  224SL       H 3354   3.289   1.576   1.422
  224SL       H 3355   3.395   1.611   1.206
  224SL       H 3356   3.470   1.762   1.260
  224SL       H 3357   3.170   1.712   1.219
  224SL       H 3358   3.271   1.825   1.127
  224SL       H 3359   3.132   1.920   1.336
  224SL       H 3360   3.304   1.968   1.321
  225SL       O 3361   0.558   0.400   3.889
  225SL       S 3362   0.479   0.463   3.992
  225SL       O 3363   0.455   0.398   4.120
  225SL       C 3364   0.542   0.627   4.021
  225SL       C 3365   0.421   0.719   4.007
  225SL       C 3366   0.337   0.661   3.893
  225SL       C 3367   0.322   0.513   3.924
  225SL       H 3368   0.588   0.633   4.120
  225SL       H 3369   0.617   0.649   3.944
  225SL       H 3370   0.452   0.822   3.985
  225SL       H 3371   0.363   0.719   4.100
  225SL       H 3372   0.390   0.675   3.798
  225SL       H 3373   0.240   0.710   3.885
  225SL       H 3374   0.300   0.453   3.835
  225SL       H 3375   0.246   0.496   4.000
  226SL       O 3376   0.852   1.179   3.288
  226SL       S 3377   0.882   1.041   3.317
  226SL       O 3378   0.845   0.979   3.443
  226SL       C 3379   0.819   0.940   3.184
  226SL       C 3380   0.938   0.856   3.138
  226SL       C 3381   1.061   0.947   3.149
  226SL       C 3382   1.054   1.010   3.286
  226SL       H 3383   0.735   0.879   3.219
  226SL       H 3384   0.786   1.007   3.104
  226SL       H 3385   0.924   0.819   3.036
  226SL       H 3386   0.951   0.770   3.205
  226SL       H 3387   1.055   1.025   3.071
  226SL       H 3388   1.154   0.892   3.133
  226SL       H 3389   1.110   1.104   3.293
  226SL       H 3390   1.090   0.940   3.363
  227SL       O 3391   0.875   1.698   2.146
  227SL       S 3392   0.786   1.810   2.127
  227SL       O 3393   0.688   1.813   2.020
  227SL       C 3394   0.704   1.843   2.282
  227SL       C 3395   0.729   1.991   2.309
  227SL       C 3396   0.872   2.019   2.262
  227SL       C 3397   0.881   1.960   2.123
  227SL       H 3398   0.597   1.819   2.274
  227SL       H 3399   0.750   1.781   2.359
  227SL       H 3400   0.717   2.014   2.415
  227SL       H 3401   0.658   2.052   2.252
  227SL       H 3402   0.943   1.969   2.329
  227SL       H 3403   0.895   2.125   2.262
  227SL       H 3404   0.984   1.937   2.093
  227SL       H 3405   0.836   2.027   2.049
  228SL       O 3406   3.698   2.453   3.693
  228SL       S 3407   3.825   2.397   3.733
  228SL       O 3408   3.847   2.254   3.740
  228SL       C 3409   3.953   2.471   3.634
  228SL       C 3410   4.054   2.525   3.734
  228SL       C 3411   3.972   2.580   3.852
  228SL       C 3412   3.874   2.470   3.888
  228SL       H 3413   3.997   2.396   3.567
  228SL       H 3414   3.909   2.552   3.575
  228SL       H 3415   4.117   2.603   3.690
  228SL       H 3416   4.120   2.445   3.770
  228SL       H 3417   3.918   2.670   3.819
  228SL       H 3418   4.035   2.607   3.936
  228SL       H 3419   3.786   2.508   3.940
  228SL       H 3420   3.922   2.392   3.948
  229SL       O 3421   1.033   3.451   3.781
  229SL       S 3422   0.940   3.437   3.672
  229SL       O 3423   0.814   3.367   3.686
  229SL       C 3424   0.908   3.599   3.604
  229SL       C 3425   0.937   3.586   3.455
  229SL       C 3426   1.057   3.493   3.443
  229SL       C 3427   1.026   3.373   3.530
  229SL       H 3428   0.805   3.629   3.625
  229SL       H 3429   0.977   3.670   3.651
  229SL       H 3430   0.957   3.684   3.410
  229SL       H 3431   0.851   3.542   3.404
  229SL       H 3432   1.147   3.544   3.481
  229SL       H 3433   1.077   3.464   3.340
  229SL       H 3434   1.115   3.319   3.562
  229SL       H 3435   0.958   3.304   3.478
  230SL       O 3436   1.325   3.180   2.532
  230SL       S 3437   1.350   3.221   2.668
  230SL       O 3438   1.376   3.125   2.774
  230SL       C 3439   1.481   3.342   2.667
  230SL       C 3440   1.425   3.462   2.743
  230SL       C 3441   1.277   3.471   2.704
  230SL       C 3442   1.221   3.332   2.721
  230SL       H 3443   1.571   3.301   2.715
  230SL       H 3444   1.502   3.369   2.564
  230SL       H 3445   1.479   3.554   2.719
  230SL       H 3446   1.433   3.445   2.851
  230SL       H 3447   1.269   3.503   2.599
  230SL       H 3448   1.223   3.544   2.765
  230SL       H 3449   1.131   3.314   2.661
  230SL       H 3450   1.199   3.310   2.826
  231SL       O 3451   3.850   1.642   3.383
  231SL       S 3452   3.789   1.513   3.403
  231SL       O 3453   3.855   1.390   3.364
  231SL       C 3454   3.738   1.500   3.573
  231SL       C 3455   3.590   1.462   3.568
  231SL       C 3456   3.531   1.539   3.450
  231SL       C 3457   3.624   1.514   3.333
  231SL       H 3458   3.799   1.425   3.625
  231SL       H 3459   3.752   1.598   3.620
  231SL       H 3460   3.539   1.487   3.662
  231SL       H 3461   3.579   1.355   3.551
  231SL       H 3462   3.528   1.647   3.474
  231SL       H 3463   3.429   1.507   3.427
  231SL       H 3464   3.618   1.592   3.256
  231SL       H 3465   3.606   1.416   3.288
  232SL       O 3466   0.867   2.752   2.520
  232SL       S 3467   0.944   2.776   2.640
  232SL       O 3468   0.888   2.758   2.772
  232SL       C 3469   1.096   2.683   2.629
  232SL       C 3470   1.207   2.786   2.653
  232SL       C 3471   1.161   2.915   2.584
  232SL       C 3472   1.018   2.938   2.630
  232SL       H 3473   1.097   2.603   2.703
  232SL       H 3474   1.104   2.641   2.528
  232SL       H 3475   1.303   2.751   2.613
  232SL       H 3476   1.219   2.804   2.760
  232SL       H 3477   1.164   2.900   2.475
  232SL       H 3478   1.225   2.999   2.608
  232SL       H 3479   0.961   3.000   2.561
  232SL       H 3480   1.016   2.981   2.730
  233SL       O 3481   1.650   1.343   0.217
  233SL       S 3482   1.681   1.374   0.354
  233SL       O 3483   1.781   1.473   0.389
  233SL       C 3484   1.530   1.413   0.440
  233SL       C 3485   1.528   1.321   0.562
  233SL       C 3486   1.588   1.188   0.515
  233SL       C 3487   1.716   1.223   0.442
  233SL       H 3488   1.528   1.519   0.467
  233SL       H 3489   1.446   1.390   0.373
  233SL       H 3490   1.427   1.309   0.601
  233SL       H 3491   1.590   1.364   0.641
  233SL       H 3492   1.517   1.139   0.446
  233SL       H 3493   1.606   1.120   0.599
  233SL       H 3494   1.747   1.146   0.371
  233SL       H 3495   1.797   1.244   0.513
  234SL       O 3496   3.562   2.152   3.142
  234SL       S 3497   3.533   2.222   3.019
  234SL       O 3498   3.398   2.259   2.981
  234SL       C 3499   3.638   2.366   3.010
  234SL       C 3500   3.709   2.355   2.875
  234SL       C 3501   3.738   2.207   2.854
  234SL       C 3502   3.608   2.134   2.883
  234SL       H 3503   3.577   2.457   3.019
  234SL       H 3504   3.709   2.361   3.092
  234SL       H 3505   3.800   2.415   2.873
  234SL       H 3506   3.643   2.392   2.795
  234SL       H 3507   3.816   2.175   2.926
  234SL       H 3508   3.775   2.186   2.754
  234SL       H 3509   3.623   2.029   2.911
  234SL       H 3510   3.540   2.141   2.797
  235SL       O 3511   0.818   0.100   2.650
  235SL       S 3512   0.696   0.175   2.668
  235SL       O 3513   0.568   0.110   2.691
  235SL       C 3514   0.723   0.296   2.797
  235SL       C 3515   0.682   0.429   2.735
  235SL       C 3516   0.728   0.424   2.589
  235SL       C 3517   0.678   0.292   2.535
  235SL       H 3518   0.663   0.270   2.885
  235SL       H 3519   0.829   0.295   2.822
  235SL       H 3520   0.727   0.513   2.789
  235SL       H 3521   0.573   0.441   2.739
  235SL       H 3522   0.838   0.428   2.586
  235SL       H 3523   0.690   0.508   2.531
  235SL       H 3524   0.735   0.257   2.448
  235SL       H 3525   0.572   0.297   2.509
  236SL       O 3526   0.792   1.544   2.280
  236SL       S 3527   0.907   1.473   2.331
  236SL       O 3528   0.898   1.384   2.444
  236SL       C 3529   0.985   1.388   2.195
  236SL       C 3530   1.131   1.432   2.199
  236SL       C 3531   1.129   1.580   2.238
  236SL       C 3532   1.039   1.590   2.360
  236SL       H 3533   0.974   1.280   2.208
  236SL       H 3534   0.937   1.420   2.102
  236SL       H 3535   1.180   1.417   2.102
  236SL       H 3536   1.186   1.375   2.274
  236SL       H 3537   1.087   1.639   2.155
  236SL       H 3538   1.229   1.618   2.259
  236SL       H 3539   0.997   1.690   2.374
  236SL       H 3540   1.092   1.558   2.450
  237SL       O 3541   2.693   2.534   2.305
  237SL       S 3542   2.631   2.424   2.235
  237SL       O 3543   2.708   2.334   2.151
  237SL       C 3544   2.535   2.328   2.350
  237SL       C 3545   2.396   2.320   2.289
  237SL       C 3546   2.370   2.456   2.224
  237SL       C 3547   2.493   2.486   2.140
  237SL       H 3548   2.580   2.230   2.364
  237SL       H 3549   2.533   2.382   2.445
  237SL       H 3550   2.320   2.298   2.365
  237SL       H 3551   2.392   2.242   2.213
  237SL       H 3552   2.358   2.533   2.302
  237SL       H 3553   2.279   2.456   2.163
  237SL       H 3554   2.507   2.593   2.121
  237SL       H 3555   2.490   2.431   2.046
  238SL       O 3556   3.731   2.036   0.476
  238SL       S 3557   3.652   2.038   0.355
  238SL       O 3558   3.708   2.002   0.226
  238SL       C 3559   3.504   1.942   0.382
  238SL       C 3560   3.389   2.035   0.344
  238SL       C 3561   3.431   2.175   0.391
  238SL       C 3562   3.571   2.196   0.340
  238SL       H 3563   3.506   1.851   0.322
  238SL       H 3564   3.500   1.916   0.489
  238SL       H 3565   3.295   2.004   0.391
  238SL       H 3566   3.375   2.035   0.236
  238SL       H 3567   3.429   2.178   0.501
  238SL       H 3568   3.362   2.252   0.355
  238SL       H 3569   3.627   2.271   0.397
  238SL       H 3570   3.571   2.223   0.234
  239SL       O 3571   2.419   1.176   3.113
  239SL       S 3572   2.479   1.250   3.005
  239SL       O 3573   2.464   1.210   2.867
  239SL       C 3574   2.431   1.421   3.021
  239SL       C 3575   2.562   1.499   3.020
  239SL       C 3576   2.663   1.414   3.097
  239SL       C 3577   2.652   1.275   3.040
  239SL       H 3578   2.364   1.449   2.939
  239SL       H 3579   2.379   1.434   3.116
  239SL       H 3580   2.550   1.599   3.064
  239SL       H 3581   2.597   1.513   2.916
  239SL       H 3582   2.635   1.414   3.204
  239SL       H 3583   2.764   1.454   3.089
  239SL       H 3584   2.687   1.198   3.110
  239SL       H 3585   2.706   1.267   2.945
  240SL       O 3586   1.071   0.352   0.770
  240SL       S 3587   1.164   0.294   0.676
  240SL       O 3588   1.253   0.186   0.713
  240SL       C 3589   1.074   0.247   0.529
  240SL       C 3590   1.149   0.315   0.414
  240SL       C 3591   1.194   0.451   0.467
  240SL       C 3592   1.260   0.424   0.600
  240SL       H 3593   1.072   0.139   0.519
  240SL       H 3594   0.973   0.286   0.537
  240SL       H 3595   1.085   0.325   0.326
  240SL       H 3596   1.236   0.255   0.386
  240SL       H 3597   1.106   0.516   0.480
  240SL       H 3598   1.262   0.501   0.398
  240SL       H 3599   1.261   0.512   0.666
  240SL       H 3600   1.362   0.387   0.587
  241SL       O 3601   2.864   3.325   1.132
  241SL       S 3602   2.876   3.261   1.261
  241SL       O 3603   2.903   3.336   1.382
  241SL       C 3604   2.734   3.158   1.286
  241SL       C 3605   2.790   3.020   1.319
  241SL       C 3606   2.914   3.002   1.231
  241SL       C 3607   2.995   3.128   1.248
  241SL       H 3608   2.672   3.198   1.367
  241SL       H 3609   2.676   3.155   1.194
  241SL       H 3610   2.716   2.941   1.301
  241SL       H 3611   2.819   3.015   1.425
  241SL       H 3612   2.882   2.991   1.126
  241SL       H 3613   2.971   2.913   1.257
  241SL       H 3614   3.063   3.147   1.164
  241SL       H 3615   3.052   3.126   1.341
  242SL       O 3616   3.965   2.686   2.405
  242SL       S 3617   3.904   2.640   2.282
  242SL       O 3618   3.778   2.694   2.235
  242SL       C 3619   4.024   2.651   2.151
  242SL       C 3620   4.027   2.512   2.088
  242SL       C 3621   4.010   2.413   2.204
  242SL       C 3622   3.893   2.462   2.285
  242SL       H 3623   3.995   2.729   2.079
  242SL       H 3624   4.121   2.675   2.195
  242SL       H 3625   4.120   2.495   2.033
  242SL       H 3626   3.943   2.500   2.018
  242SL       H 3627   4.102   2.414   2.265
  242SL       H 3628   3.995   2.311   2.168
  242SL       H 3629   3.894   2.427   2.388
  242SL       H 3630   3.798   2.434   2.237
  243SL       O 3631   0.609   2.356   3.010
  243SL       S 3632   0.571   2.221   3.042
  243SL       O 3633   0.432   2.180   3.048
  243SL       C 3634   0.660   2.109   2.936
  243SL       C 3635   0.728   2.011   3.030
  243SL       C 3636   0.772   2.092   3.152
  243SL       C 3637   0.651   2.172   3.194
  243SL       H 3638   0.591   2.060   2.866
  243SL       H 3639   0.734   2.167   2.880
  243SL       H 3640   0.814   1.961   2.982
  243SL       H 3641   0.658   1.933   3.061
  243SL       H 3642   0.855   2.159   3.123
  243SL       H 3643   0.808   2.028   3.233
  243SL       H 3644   0.677   2.261   3.252
  243SL       H 3645   0.581   2.110   3.251
  244SL       O 3646   3.422   1.663   0.855
  244SL       S 3647   3.542   1.621   0.788
  244SL       O 3648   3.545   1.504   0.701
  244SL       C 3649   3.610   1.760   0.700
  244SL       C 3650   3.755   1.770   0.747
  244SL       C 3651   3.754   1.734   0.896
  244SL       C 3652   3.674   1.606   0.907
  244SL       H 3653   3.603   1.744   0.592
  244SL       H 3654   3.554   1.849   0.728
  244SL       H 3655   3.796   1.870   0.730
  244SL       H 3656   3.818   1.698   0.693
  244SL       H 3657   3.704   1.815   0.952
  244SL       H 3658   3.854   1.723   0.936
  244SL       H 3659   3.632   1.591   1.007
  244SL       H 3660   3.735   1.519   0.879
  245SL       O 3661   3.572   3.931   0.831
  245SL       S 3662   3.536   3.974   0.698
  245SL       O 3663   3.502   4.112   0.670
  245SL       C 3664   3.662   3.921   0.585
  245SL       C 3665   3.587   3.844   0.476
  245SL       C 3666   3.475   3.768   0.547
  245SL       C 3667   3.406   3.869   0.636
  245SL       H 3668   3.716   4.007   0.545
  245SL       H 3669   3.731   3.855   0.638
  245SL       H 3670   3.654   3.776   0.422
  245SL       H 3671   3.544   3.914   0.403
  245SL       H 3672   3.519   3.687   0.608
  245SL       H 3673   3.406   3.722   0.477
  245SL       H 3674   3.353   3.823   0.720
  245SL       H 3675   3.337   3.931   0.578
  246SL       O 3676   2.413   1.884   2.480
  246SL       S 3677   2.476   1.921   2.355
  246SL       O 3678   2.432   2.035   2.278
  246SL       C 3679   2.651   1.932   2.382
  246SL       C 3680   2.713   1.842   2.276
  246SL       C 3681   2.620   1.721   2.263
  246SL       C 3682   2.480   1.778   2.249
  246SL       H 3683   2.684   2.036   2.372
  246SL       H 3684   2.673   1.895   2.482
  246SL       H 3685   2.815   1.811   2.303
  246SL       H 3686   2.719   1.894   2.180
  246SL       H 3687   2.627   1.660   2.355
  246SL       H 3688   2.646   1.657   2.178
  246SL       H 3689   2.402   1.707   2.278
  246SL       H 3690   2.462   1.812   2.146
  247SL       O 3691   1.702   1.267   3.156
  247SL       S 3692   1.572   1.308   3.107
  247SL       O 3693   1.469   1.212   3.075
  247SL       C 3694   1.506   1.430   3.218
  247SL       C 3695   1.470   1.549   3.129
  247SL       C 3696   1.579   1.557   3.022
  247SL       C 3697   1.594   1.417   2.967
  247SL       H 3698   1.419   1.390   3.271
  247SL       H 3699   1.584   1.458   3.289
  247SL       H 3700   1.463   1.642   3.187
  247SL       H 3701   1.373   1.532   3.081
  247SL       H 3702   1.674   1.589   3.070
  247SL       H 3703   1.555   1.629   2.944
  247SL       H 3704   1.692   1.399   2.921
  247SL       H 3705   1.515   1.395   2.895
  248SL       O 3706   1.029   2.814   1.176
  248SL       S 3707   0.998   2.850   1.312
  248SL       O 3708   1.086   2.934   1.391
  248SL       C 3709   0.834   2.919   1.316
  248SL       C 3710   0.760   2.838   1.422
  248SL       C 3711   0.810   2.694   1.408
  248SL       C 3712   0.961   2.703   1.405
  248SL       H 3713   0.838   3.026   1.340
  248SL       H 3714   0.788   2.905   1.218
  248SL       H 3715   0.651   2.844   1.409
  248SL       H 3716   0.784   2.876   1.522
  248SL       H 3717   0.772   2.651   1.314
  248SL       H 3718   0.775   2.631   1.490
  248SL       H 3719   1.007   2.616   1.356
  248SL       H 3720   1.002   2.715   1.505
  249SL       O 3721   2.273   3.718   2.306
  249SL       S 3722   2.233   3.582   2.335
  249SL       O 3723   2.297   3.504   2.439
  249SL       C 3724   2.057   3.578   2.359
  249SL       C 3725   2.006   3.471   2.262
  249SL       C 3726   2.091   3.484   2.136
  249SL       C 3727   2.235   3.488   2.183
  249SL       H 3728   2.033   3.555   2.463
  249SL       H 3729   2.016   3.676   2.332
  249SL       H 3730   1.899   3.485   2.240
  249SL       H 3731   2.019   3.372   2.306
  249SL       H 3732   2.065   3.578   2.084
  249SL       H 3733   2.074   3.402   2.066
  249SL       H 3734   2.302   3.536   2.111
  249SL       H 3735   2.271   3.387   2.207
  250SL       O 3736   1.229   3.594   0.577
  250SL       S 3737   1.265   3.698   0.484
  250SL       O 3738   1.224   3.694   0.345
  250SL       C 3739   1.219   3.856   0.553
  250SL       C 3740   1.347   3.940   0.548
  250SL       C 3741   1.462   3.844   0.580
  250SL       C 3742   1.442   3.724   0.490
  250SL       H 3743   1.138   3.900   0.496
  250SL       H 3744   1.188   3.839   0.657
  250SL       H 3745   1.343   4.023   0.620
  250SL       H 3746   1.360   3.982   0.448
  250SL       H 3747   1.457   3.814   0.686
  250SL       H 3748   1.559   3.891   0.563
  250SL       H 3749   1.490   3.633   0.528
  250SL       H 3750   1.476   3.744   0.388
  251SL       O 3751   1.244   3.906   3.100
  251SL       S 3752   1.140   3.867   3.192
  251SL       O 3753   1.050   3.757   3.164
  251SL       C 3754   1.213   3.843   3.353
  251SL       C 3755   1.131   3.930   3.447
  251SL       C 3756   1.098   4.057   3.369
  251SL       C 3757   1.044   4.011   3.236
  251SL       H 3758   1.210   3.737   3.380
  251SL       H 3759   1.317   3.877   3.349
  251SL       H 3760   1.187   3.953   3.539
  251SL       H 3761   1.039   3.879   3.476
  251SL       H 3762   1.190   4.116   3.355
  251SL       H 3763   1.026   4.120   3.422
  251SL       H 3764   1.053   4.087   3.157
  251SL       H 3765   0.939   3.979   3.244
  252SL       O 3766   2.319   2.182   0.100
  252SL       S 3767   2.350   2.122   0.227
  252SL       O 3768   2.284   2.163   0.350
  252SL       C 3769   2.338   1.945   0.211
  252SL       C 3770   2.472   1.892   0.261
  252SL       C 3771   2.578   1.991   0.213
  252SL       C 3772   2.527   2.128   0.252
  252SL       H 3773   2.254   1.908   0.270
  252SL       H 3774   2.324   1.921   0.105
  252SL       H 3775   2.491   1.791   0.223
  252SL       H 3776   2.472   1.887   0.371
  252SL       H 3777   2.588   1.984   0.104
  252SL       H 3778   2.676   1.971   0.257
  252SL       H 3779   2.570   2.208   0.191
  252SL       H 3780   2.545   2.148   0.358
  253SL       O 3781   3.150   0.718   1.870
  253SL       S 3782   3.072   0.675   1.983
  253SL       O 3783   3.125   0.675   2.118
  253SL       C 3784   2.917   0.764   1.983
  253SL       C 3785   2.809   0.657   1.989
  253SL       C 3786   2.860   0.540   1.904
  253SL       C 3787   3.002   0.514   1.949
  253SL       H 3788   2.913   0.833   2.067
  253SL       H 3789   2.911   0.820   1.889
  253SL       H 3790   2.713   0.694   1.953
  253SL       H 3791   2.796   0.623   2.093
  253SL       H 3792   2.859   0.570   1.798
  253SL       H 3793   2.798   0.451   1.914
  253SL       H 3794   3.063   0.464   1.873
  253SL       H 3795   3.004   0.457   2.042
  254SL       O 3796   2.725   0.640   0.738
  254SL       S 3797   2.772   0.721   0.628
  254SL       O 3798   2.757   0.678   0.490
  254SL       C 3799   2.704   0.885   0.646
  254SL       C 3800   2.825   0.978   0.640
  254SL       C 3801   2.938   0.906   0.714
  254SL       C 3802   2.942   0.766   0.657
  254SL       H 3803   2.632   0.904   0.566
  254SL       H 3804   2.655   0.891   0.743
  254SL       H 3805   2.803   1.075   0.685
  254SL       H 3806   2.854   0.995   0.535
  254SL       H 3807   2.914   0.903   0.821
  254SL       H 3808   3.034   0.957   0.702
  254SL       H 3809   2.988   0.693   0.725
  254SL       H 3810   2.994   0.764   0.561
  255SL       O 3811   3.670   3.157   1.073
  255SL       S 3812   3.604   3.247   0.981
  255SL       O 3813   3.622   3.391   0.990
  255SL       C 3814   3.638   3.194   0.815
  255SL       C 3815   3.501   3.180   0.749
  255SL       C 3816   3.408   3.125   0.856
  255SL       C 3817   3.430   3.210   0.979
  255SL       H 3818   3.702   3.267   0.764
  255SL       H 3819   3.689   3.097   0.819
  255SL       H 3820   3.505   3.115   0.661
  255SL       H 3821   3.465   3.279   0.716
  255SL       H 3822   3.435   3.020   0.878
  255SL       H 3823   3.303   3.126   0.824
  255SL       H 3824   3.402   3.160   1.072
  255SL       H 3825   3.376   3.305   0.971
  256SL       O 3826   3.313   2.764   1.505
  256SL       S 3827   3.431   2.745   1.424
  256SL       O 3828   3.481   2.614   1.390
  256SL       C 3829   3.413   2.841   1.275
  256SL       C 3830   3.539   2.928   1.268
  256SL       C 3831   3.570   2.969   1.412
  256SL       C 3832   3.565   2.841   1.493
  256SL       H 3833   3.404   2.775   1.188
  256SL       H 3834   3.324   2.903   1.284
  256SL       H 3835   3.524   3.015   1.203
  256SL       H 3836   3.623   2.870   1.227
  256SL       H 3837   3.493   3.040   1.447
  256SL       H 3838   3.667   3.018   1.420
  256SL       H 3839   3.545   2.859   1.600
  256SL       H 3840   3.657   2.783   1.482
  257SL       O 3841   1.890   0.590   2.219
  257SL       S 3842   1.948   0.506   2.116
  257SL       O 3843   1.959   0.550   1.979
  257SL       C 3844   2.107   0.449   2.173
  257SL       C 3845   2.102   0.297   2.159
  257SL       C 3846   1.960   0.256   2.197
  257SL       C 3847   1.867   0.347   2.119
  257SL       H 3848   2.187   0.494   2.112
  257SL       H 3849   2.119   0.478   2.277
  257SL       H 3850   2.176   0.249   2.223
  257SL       H 3851   2.122   0.268   2.055
  257SL       H 3852   1.945   0.271   2.306
  257SL       H 3853   1.940   0.151   2.176
  257SL       H 3854   1.768   0.357   2.165
  257SL       H 3855   1.857   0.313   2.016
  258SL       O 3856   0.379   2.460   2.763
  258SL       S 3857   0.467   2.436   2.651
  258SL       O 3858   0.417   2.396   2.521
  258SL       C 3859   0.573   2.578   2.631
  258SL       C 3860   0.715   2.522   2.631
  258SL       C 3861   0.715   2.408   2.733
  258SL       C 3862   0.595   2.322   2.700
  258SL       H 3863   0.549   2.631   2.539
  258SL       H 3864   0.557   2.644   2.717
  258SL       H 3865   0.788   2.599   2.657
  258SL       H 3866   0.740   2.483   2.532
  258SL       H 3867   0.705   2.450   2.835
  258SL       H 3868   0.808   2.350   2.730
  258SL       H 3869   0.560   2.262   2.785
  258SL       H 3870   0.616   2.256   2.615
  259SL       O 3871   1.861   1.082   2.506
  259SL       S 3872   1.920   0.955   2.470
  259SL       O 3873   2.064   0.937   2.462
  259SL       C 3874   1.852   0.829   2.575
  259SL       C 3875   1.798   0.723   2.480
  259SL       C 3876   1.741   0.798   2.360
  259SL       C 3877   1.847   0.898   2.318
  259SL       H 3878   1.928   0.790   2.643
  259SL       H 3879   1.770   0.874   2.633
  259SL       H 3880   1.723   0.660   2.528
  259SL       H 3881   1.880   0.658   2.446
  259SL       H 3882   1.649   0.851   2.391
  259SL       H 3883   1.714   0.731   2.278
  259SL       H 3884   1.806   0.982   2.262
  259SL       H 3885   1.925   0.849   2.259
  260SL       O 3886   0.575   2.434   0.985
  260SL       S 3887   0.654   2.499   1.086
  260SL       O 3888   0.622   2.490   1.227
  260SL       C 3889   0.825   2.453   1.062
  260SL       C 3890   0.901   2.585   1.053
  260SL       C 3891   0.810   2.681   0.977
  260SL       C 3892   0.674   2.671   1.042
  260SL       H 3893   0.859   2.391   1.145
  260SL       H 3894   0.832   2.397   0.968
  260SL       H 3895   0.997   2.572   1.003
  260SL       H 3896   0.920   2.625   1.154
  260SL       H 3897   0.804   2.649   0.871
  260SL       H 3898   0.848   2.784   0.978
  260SL       H 3899   0.592   2.702   0.976
  260SL       H 3900   0.670   2.729   1.135
  261SL       O 3901   3.825   3.522   1.462
  261SL       S 3902   3.879   3.591   1.577
  261SL       O 3903   3.881   3.530   1.708
  261SL       C 3904   4.042   3.649   1.537
  261SL       C 3905   4.041   3.798   1.569
  261SL       C 3906   3.902   3.848   1.528
  261SL       C 3907   3.803   3.752   1.589
  261SL       H 3908   4.117   3.594   1.596
  261SL       H 3909   4.060   3.632   1.431
  261SL       H 3910   4.120   3.851   1.516
  261SL       H 3911   4.055   3.814   1.676
  261SL       H 3912   3.894   3.847   1.418
  261SL       H 3913   3.884   3.951   1.561
  261SL       H 3914   3.706   3.751   1.537
  261SL       H 3915   3.788   3.774   1.695
  262SL       O 3916   3.058   1.765   2.422
  262SL       S 3917   3.086   1.823   2.551
  262SL       O 3918   3.003   1.795   2.667
  262SL       C 3919   3.256   1.789   2.593
  262SL       C 3920   3.317   1.925   2.626
  262SL       C 3921   3.253   2.025   2.529
  262SL       C 3922   3.104   1.999   2.535
  262SL       H 3923   3.262   1.719   2.677
  262SL       H 3924   3.305   1.745   2.505
  262SL       H 3925   3.426   1.924   2.617
  262SL       H 3926   3.291   1.953   2.729
  262SL       H 3927   3.292   2.005   2.427
  262SL       H 3928   3.278   2.128   2.554
  262SL       H 3929   3.052   2.033   2.445
  262SL       H 3930   3.060   2.046   2.623
  263SL       O 3931   0.461   1.826   3.820
  263SL       S 3932   0.322   1.788   3.811
  263SL       O 3933   0.246   1.805   3.689
  263SL       C 3934   0.306   1.619   3.866
  263SL       C 3935   0.198   1.624   3.975
  263SL       C 3936   0.220   1.754   4.051
  263SL       C 3937   0.232   1.862   3.945
  263SL       H 3938   0.279   1.554   3.783
  263SL       H 3939   0.402   1.588   3.908
  263SL       H 3940   0.205   1.537   4.041
  263SL       H 3941   0.099   1.623   3.928
  263SL       H 3942   0.313   1.748   4.109
  263SL       H 3943   0.138   1.775   4.120
  263SL       H 3944   0.286   1.951   3.981
  263SL       H 3945   0.134   1.892   3.907
  264SL       O 3946   3.770   1.458   2.775
  264SL       S 3947   3.704   1.587   2.773
  264SL       O 3948   3.672   1.658   2.896
  264SL       C 3949   3.794   1.695   2.664
  264SL       C 3950   3.690   1.748   2.566
  264SL       C 3951   3.595   1.631   2.538
  264SL       C 3952   3.557   1.575   2.673
  264SL       H 3953   3.842   1.775   2.722
  264SL       H 3954   3.870   1.636   2.613
  264SL       H 3955   3.736   1.785   2.474
  264SL       H 3956   3.634   1.831   2.611
  264SL       H 3957   3.648   1.555   2.479
  264SL       H 3958   3.507   1.663   2.481
  264SL       H 3959   3.523   1.471   2.669
  264SL       H 3960   3.479   1.637   2.721
  265SL       O 3961   2.923   2.190   2.791
  265SL       S 3962   2.988   2.308   2.740
  265SL       O 3963   3.132   2.326   2.748
  265SL       C 3964   2.936   2.333   2.571
  265SL       C 3965   2.884   2.477   2.567
  265SL       C 3966   2.813   2.500   2.701
  265SL       C 3967   2.909   2.452   2.808
  265SL       H 3968   3.020   2.317   2.503
  265SL       H 3969   2.856   2.263   2.549
  265SL       H 3970   2.817   2.493   2.482
  265SL       H 3971   2.968   2.547   2.558
  265SL       H 3972   2.720   2.441   2.703
  265SL       H 3973   2.786   2.605   2.715
  265SL       H 3974   2.858   2.426   2.901
  265SL       H 3975   2.986   2.527   2.827
  266SL       O 3976   2.712   0.994   2.997
  266SL       S 3977   2.690   1.005   2.854
  266SL       O 3978   2.728   1.123   2.780
  266SL       C 3979   2.760   0.861   2.775
  266SL       C 3980   2.647   0.803   2.691
  266SL       C 3981   2.519   0.822   2.772
  266SL       C 3982   2.520   0.967   2.818
  266SL       H 3983   2.847   0.890   2.715
  266SL       H 3984   2.791   0.791   2.853
  266SL       H 3985   2.665   0.698   2.667
  266SL       H 3986   2.639   0.858   2.596
  266SL       H 3987   2.522   0.755   2.860
  266SL       H 3988   2.430   0.799   2.714
  266SL       H 3989   2.458   0.984   2.907
  266SL       H 3990   2.487   1.033   2.737
  267SL       O 3991   1.149   0.967   0.690
  267SL       S 3992   1.077   1.091   0.707
  267SL       O 3993   1.065   1.189   0.601
  267SL       C 3994   0.914   1.054   0.770
  267SL       C 3995   0.900   1.139   0.896
  267SL       C 3996   1.037   1.140   0.963
  267SL       C 3997   1.137   1.173   0.854
  267SL       H 3998   0.839   1.077   0.695
  267SL       H 3999   0.911   0.948   0.795
  267SL       H 4000   0.822   1.100   0.962
  267SL       H 4001   0.872   1.242   0.869
  267SL       H 4002   1.058   1.040   1.004
  267SL       H 4003   1.042   1.211   1.045
  267SL       H 4004   1.238   1.139   0.877
  267SL       H 4005   1.138   1.281   0.834
  268SL       O 4006   2.602   4.120   0.733
  268SL       S 4007   2.532   4.024   0.815
  268SL       O 4008   2.547   4.021   0.959
  268SL       C 4009   2.358   4.033   0.776
  268SL       C 4010   2.318   3.889   0.743
  268SL       C 4011   2.436   3.828   0.668
  268SL       C 4012   2.559   3.860   0.750
  268SL       H 4013   2.302   4.073   0.861
  268SL       H 4014   2.346   4.097   0.689
  268SL       H 4015   2.226   3.886   0.683
  268SL       H 4016   2.300   3.833   0.835
  268SL       H 4017   2.444   3.875   0.568
  268SL       H 4018   2.425   3.721   0.653
  268SL       H 4019   2.651   3.859   0.692
  268SL       H 4020   2.568   3.792   0.835
  269SL       O 4021   1.273   0.100   1.475
  269SL       S 4022   1.236   0.201   1.379
  269SL       O 4023   1.115   0.192   1.299
  269SL       C 4024   1.239   0.360   1.460
  269SL       C 4025   1.330   0.447   1.373
  269SL       C 4026   1.442   0.356   1.324
  269SL       C 4027   1.374   0.232   1.270
  269SL       H 4028   1.138   0.400   1.468
  269SL       H 4029   1.282   0.346   1.560
  269SL       H 4030   1.369   0.532   1.430
  269SL       H 4031   1.273   0.486   1.288
  269SL       H 4032   1.507   0.329   1.409
  269SL       H 4033   1.504   0.404   1.248
  269SL       H 4034   1.439   0.144   1.268
  269SL       H 4035   1.334   0.250   1.169
  270SL       O 4036   2.576   0.892   1.943
  270SL       S 4037   2.518   0.970   1.836
  270SL       O 4038   2.555   0.951   1.698
  270SL       C 4039   2.340   0.961   1.851
  270SL       C 4040   2.293   1.107   1.854
  270SL       C 4041   2.398   1.183   1.934
  270SL       C 4042   2.532   1.143   1.877
  270SL       H 4043   2.298   0.906   1.766
  270SL       H 4044   2.316   0.911   1.945
  270SL       H 4045   2.194   1.116   1.898
  270SL       H 4046   2.288   1.147   1.752
  270SL       H 4047   2.392   1.153   2.040
  270SL       H 4048   2.383   1.291   1.929
  270SL       H 4049   2.615   1.158   1.947
  270SL       H 4050   2.553   1.198   1.784
  271SL       O 4051   3.675   0.351   1.417
  271SL       S 4052   3.595   0.232   1.433
  271SL       O 4053   3.646   0.100   1.401
  271SL       C 4054   3.530   0.230   1.599
  271SL       C 4055   3.379   0.213   1.582
  271SL       C 4056   3.341   0.294   1.459
  271SL       C 4057   3.439   0.255   1.351
  271SL       H 4058   3.575   0.148   1.656
  271SL       H 4059   3.553   0.326   1.646
  271SL       H 4060   3.325   0.246   1.671
  271SL       H 4061   3.355   0.107   1.566
  271SL       H 4062   3.351   0.402   1.482
  271SL       H 4063   3.238   0.276   1.428
  271SL       H 4064   3.449   0.331   1.273
  271SL       H 4065   3.411   0.159   1.305
  272SL       O 4066   3.765   2.998   1.616
  272SL       S 4067   3.889   3.069   1.595
  272SL       O 4068   3.961   3.131   1.704
  272SL       C 4069   4.000   2.964   1.504
  272SL       C 4070   4.043   3.046   1.383
  272SL       C 4071   3.919   3.126   1.339
  272SL       C 4072   3.865   3.189   1.465
  272SL       H 4073   4.084   2.935   1.567
  272SL       H 4074   3.945   2.875   1.472
  272SL       H 4075   4.080   2.983   1.302
  272SL       H 4076   4.123   3.116   1.411
  272SL       H 4077   3.845   3.056   1.297
  272SL       H 4078   3.943   3.200   1.263
  272SL       H 4079   3.758   3.215   1.458
  272SL       H 4080   3.922   3.279   1.492
  273SL       O 4081   2.614   0.730   3.057
  273SL       S 4082   2.612   0.596   3.001
  273SL       O 4083   2.643   0.571   2.862
  273SL       C 4084   2.713   0.490   3.103
  273SL       C 4085   2.623   0.373   3.140
  273SL       C 4086   2.483   0.432   3.161
  273SL       C 4087   2.456   0.519   3.041
  273SL       H 4088   2.802   0.459   3.048
  273SL       H 4089   2.742   0.546   3.192
  273SL       H 4090   2.659   0.321   3.229
  273SL       H 4091   2.620   0.300   3.057
  273SL       H 4092   2.483   0.492   3.253
  273SL       H 4093   2.407   0.354   3.172
  273SL       H 4094   2.381   0.596   3.060
  273SL       H 4095   2.426   0.459   2.954
  274SL       O 4096   3.109   3.838   0.541
  274SL       S 4097   3.028   3.795   0.430
  274SL       O 4098   2.887   3.764   0.445
  274SL       C 4099   3.047   3.913   0.298
  274SL       C 4100   3.087   3.830   0.176
  274SL       C 4101   3.179   3.720   0.228
  274SL       C 4102   3.108   3.659   0.347
  274SL       H 4103   2.953   3.968   0.282
  274SL       H 4104   3.127   3.983   0.325
  274SL       H 4105   3.136   3.892   0.100
  274SL       H 4106   2.998   3.785   0.130
  274SL       H 4107   3.275   3.765   0.260
  274SL       H 4108   3.201   3.645   0.152
  274SL       H 4109   3.176   3.609   0.417
  274SL       H 4110   3.030   3.589   0.315
  275SL       O 4111   4.080   3.686   0.554
  275SL       S 4112   4.034   3.550   0.537
  275SL       O 4113   4.088   3.463   0.434
  275SL       C 4114   4.043   3.467   0.694
  275SL       C 4115   3.903   3.410   0.717
  275SL       C 4116   3.805   3.514   0.662
  275SL       C 4117   3.856   3.550   0.524
  275SL       H 4118   4.120   3.389   0.691
  275SL       H 4119   4.067   3.541   0.771
  275SL       H 4120   3.885   3.389   0.823
  275SL       H 4121   3.891   3.316   0.661
  275SL       H 4122   3.806   3.603   0.727
  275SL       H 4123   3.703   3.476   0.659
  275SL       H 4124   3.822   3.649   0.490
  275SL       H 4125   3.828   3.474   0.451
  276SL       O 4126   3.488   4.039   1.566
  276SL       S 4127   3.471   3.941   1.461
  276SL       O 4128   3.422   3.808   1.488
  276SL       C 4129   3.374   4.014   1.330
  276SL       C 4130   3.457   3.994   1.204
  276SL       C 4131   3.603   4.014   1.245
  276SL       C 4132   3.623   3.928   1.368
  276SL       H 4133   3.277   3.965   1.324
  276SL       H 4134   3.362   4.120   1.352
  276SL       H 4135   3.428   4.065   1.125
  276SL       H 4136   3.443   3.893   1.165
  276SL       H 4137   3.620   4.120   1.269
  276SL       H 4138   3.672   3.986   1.165
  276SL       H 4139   3.707   3.962   1.430
  276SL       H 4140   3.637   3.823   1.341
  277SL       O 4141   2.228   2.842   3.436
  277SL       S 4142   2.345   2.915   3.479
  277SL       O 4143   2.438   2.860   3.576
  277SL       C 4144   2.436   2.966   3.335
  277SL       C 4145   2.455   3.117   3.351
  277SL       C 4146   2.326   3.169   3.414
  277SL       C 4147   2.297   3.078   3.531
  277SL       H 4148   2.531   2.912   3.329
  277SL       H 4149   2.375   2.944   3.246
  277SL       H 4150   2.476   3.165   3.255
  277SL       H 4151   2.539   3.137   3.418
  277SL       H 4152   2.244   3.162   3.340
  277SL       H 4153   2.334   3.273   3.444
  277SL       H 4154   2.191   3.078   3.560
  277SL       H 4155   2.358   3.105   3.618
  278SL       O 4156   1.029   2.115   1.688
  278SL       S 4157   0.990   2.243   1.741
  278SL       O 4158   0.974   2.360   1.656
  278SL       C 4159   0.842   2.222   1.838
  278SL       C 4160   0.874   2.283   1.974
  278SL       C 4161   1.020   2.249   2.002
  278SL       C 4162   1.097   2.286   1.877
  278SL       H 4163   0.757   2.271   1.789
  278SL       H 4164   0.822   2.115   1.847
  278SL       H 4165   0.808   2.245   2.052
  278SL       H 4166   0.862   2.392   1.970
  278SL       H 4167   1.029   2.141   2.021
  278SL       H 4168   1.059   2.301   2.090
  278SL       H 4169   1.191   2.232   1.867
  278SL       H 4170   1.115   2.393   1.872
  279SL       O 4171   2.834   1.496   1.681
  279SL       S 4172   2.928   1.591   1.625
  279SL       O 4173   3.053   1.623   1.691
  279SL       C 4174   2.961   1.543   1.456
  279SL       C 4175   2.933   1.668   1.374
  279SL       C 4176   2.812   1.735   1.438
  279SL       C 4177   2.842   1.742   1.586
  279SL       H 4178   3.065   1.509   1.447
  279SL       H 4179   2.893   1.462   1.429
  279SL       H 4180   2.915   1.643   1.269
  279SL       H 4181   3.019   1.736   1.377
  279SL       H 4182   2.722   1.673   1.420
  279SL       H 4183   2.793   1.834   1.396
  279SL       H 4184   2.752   1.750   1.648
  279SL       H 4185   2.909   1.825   1.609
  280SL       O 4186   1.026   1.708   3.718
  280SL       S 4187   1.035   1.644   3.589
  280SL       O 4188   0.958   1.688   3.475
  280SL       C 4189   1.207   1.635   3.543
  280SL       C 4190   1.233   1.488   3.511
  280SL       C 4191   1.151   1.408   3.613
  280SL       C 4192   1.012   1.468   3.610
  280SL       H 4193   1.226   1.700   3.457
  280SL       H 4194   1.267   1.668   3.628
  280SL       H 4195   1.339   1.464   3.517
  280SL       H 4196   1.198   1.465   3.410
  280SL       H 4197   1.195   1.420   3.713
  280SL       H 4198   1.149   1.302   3.589
  280SL       H 4199   0.956   1.450   3.702
  280SL       H 4200   0.955   1.432   3.524
  281SL       O 4201   2.618   1.169   0.944
  281SL       S 4202   2.603   1.205   1.083
  281SL       O 4203   2.475   1.196   1.151
  281SL       C 4204   2.726   1.117   1.177
  281SL       C 4205   2.799   1.225   1.257
  281SL       C 4206   2.809   1.346   1.164
  281SL       C 4207   2.670   1.368   1.108
  281SL       H 4208   2.678   1.043   1.242
  281SL       H 4209   2.794   1.068   1.108
  281SL       H 4210   2.898   1.191   1.289
  281SL       H 4211   2.742   1.252   1.346
  281SL       H 4212   2.880   1.324   1.082
  281SL       H 4213   2.846   1.435   1.216
  281SL       H 4214   2.670   1.423   1.014
  281SL       H 4215   2.607   1.419   1.181
  282SL       O 4216   0.629   1.339   2.931
  282SL       S 4217   0.751   1.271   2.896
  282SL       O 4218   0.753   1.131   2.856
  282SL       C 4219   0.836   1.367   2.772
  282SL       C 4220   0.977   1.388   2.828
  282SL       C 4221   0.960   1.408   2.979
  282SL       C 4222   0.871   1.295   3.026
  282SL       H 4223   0.837   1.314   2.677
  282SL       H 4224   0.784   1.463   2.762
  282SL       H 4225   1.026   1.474   2.781
  282SL       H 4226   1.038   1.299   2.809
  282SL       H 4227   0.912   1.505   2.998
  282SL       H 4228   1.056   1.408   3.031
  282SL       H 4229   0.819   1.318   3.120
  282SL       H 4230   0.928   1.202   3.036
  283SL       O 4231   3.385   2.217   3.313
  283SL       S 4232   3.281   2.122   3.282
  283SL       O 4233   3.294   2.026   3.174
  283SL       C 4234   3.237   2.035   3.431
  283SL       C 4235   3.086   2.051   3.443
  283SL       C 4236   3.054   2.193   3.395
  283SL       C 4237   3.126   2.208   3.263
  283SL       H 4238   3.268   1.930   3.424
  283SL       H 4239   3.288   2.084   3.515
  283SL       H 4240   3.052   2.036   3.546
  283SL       H 4241   3.035   1.978   3.380
  283SL       H 4242   3.092   2.266   3.468
  283SL       H 4243   2.947   2.209   3.384
  283SL       H 4244   3.145   2.313   3.237
  283SL       H 4245   3.071   2.160   3.182
  284SL       O 4246   0.543   1.084   2.425
  284SL       S 4247   0.623   1.046   2.311
  284SL       O 4248   0.567   1.037   2.177
  284SL       C 4249   0.768   1.149   2.306
  284SL       C 4250   0.885   1.052   2.300
  284SL       C 4251   0.848   0.933   2.389
  284SL       C 4252   0.708   0.893   2.347
  284SL       H 4253   0.764   1.216   2.220
  284SL       H 4254   0.771   1.208   2.399
  284SL       H 4255   0.978   1.099   2.334
  284SL       H 4256   0.900   1.017   2.197
  284SL       H 4257   0.848   0.966   2.495
  284SL       H 4258   0.918   0.851   2.379
  284SL       H 4259   0.654   0.839   2.426
  284SL       H 4260   0.710   0.833   2.256
  285SL       O 4261   2.168   3.023   3.879
  285SL       S 4262   2.223   3.097   3.990
  285SL       O 4263   2.152   3.109   4.116
  285SL       C 4264   2.388   3.040   4.021
  285SL       C 4265   2.475   3.165   4.019
  285SL       C 4266   2.418   3.255   3.909
  285SL       C 4267   2.268   3.260   3.934
  285SL       H 4268   2.392   2.987   4.118
  285SL       H 4269   2.417   2.971   3.941
  285SL       H 4270   2.580   3.141   4.001
  285SL       H 4271   2.469   3.217   4.116
  285SL       H 4272   2.438   3.209   3.811
  285SL       H 4273   2.462   3.354   3.910
  285SL       H 4274   2.211   3.286   3.845
  285SL       H 4275   2.245   3.331   4.015
  286SL       O 4276   3.343   1.339   0.457
  286SL       S 4277   3.240   1.242   0.427
  286SL       O 4278   3.099   1.273   0.445
  286SL       C 4279   3.265   1.181   0.262
  286SL       C 4280   3.269   1.029   0.276
  286SL       C 4281   3.342   1.001   0.407
  286SL       C 4282   3.277   1.089   0.511
  286SL       H 4283   3.185   1.215   0.196
  286SL       H 4284   3.361   1.219   0.226
  286SL       H 4285   3.320   0.982   0.191
  286SL       H 4286   3.167   0.989   0.281
  286SL       H 4287   3.448   1.027   0.397
  286SL       H 4288   3.336   0.895   0.435
  286SL       H 4289   3.341   1.109   0.597
  286SL       H 4290   3.182   1.046   0.546
  287SL       O 4291   2.153   2.639   0.795
  287SL       S 4292   2.281   2.574   0.787
  287SL       O 4293   2.342   2.538   0.661
  287SL       C 4294   2.398   2.669   0.883
  287SL       C 4295   2.461   2.569   0.980
  287SL       C 4296   2.348   2.475   1.022
  287SL       C 4297   2.281   2.431   0.894
  287SL       H 4298   2.472   2.715   0.817
  287SL       H 4299   2.343   2.746   0.937
  287SL       H 4300   2.505   2.620   1.066
  287SL       H 4301   2.540   2.512   0.929
  287SL       H 4302   2.277   2.529   1.086
  287SL       H 4303   2.385   2.390   1.079
  287SL       H 4304   2.178   2.397   0.909
  287SL       H 4305   2.338   2.352   0.844
  288SL       O 4306   0.103   0.702   3.036
  288SL       S 4307   0.171   0.728   2.912
  288SL       O 4308   0.100   0.740   2.786
  288SL       C 4309   0.274   0.872   2.933
  288SL       C 4310   0.413   0.828   2.890
  288SL       C 4311   0.429   0.684   2.937
  288SL       C 4312   0.304   0.611   2.892
  288SL       H 4313   0.235   0.956   2.874
  288SL       H 4314   0.273   0.899   3.039
  288SL       H 4315   0.491   0.893   2.932
  288SL       H 4316   0.422   0.833   2.780
  288SL       H 4317   0.436   0.682   3.047
  288SL       H 4318   0.519   0.637   2.897
  288SL       H 4319   0.283   0.522   2.951
  288SL       H 4320   0.310   0.585   2.786
  289SL       O 4321   1.635   1.610   2.717
  289SL       S 4322   1.764   1.602   2.654
  289SL       O 4323   1.886   1.646   2.720
  289SL       C 4324   1.787   1.435   2.595
  289SL       C 4325   1.822   1.450   2.447
  289SL       C 4326   1.737   1.566   2.395
  289SL       C 4327   1.756   1.679   2.493
  289SL       H 4328   1.866   1.386   2.652
  289SL       H 4329   1.693   1.381   2.607
  289SL       H 4330   1.803   1.358   2.392
  289SL       H 4331   1.929   1.475   2.436
  289SL       H 4332   1.632   1.535   2.392
  289SL       H 4333   1.766   1.596   2.294
  289SL       H 4334   1.673   1.751   2.492
  289SL       H 4335   1.850   1.731   2.476
  290SL       O 4336   1.145   1.814   2.007
  290SL       S 4337   1.115   1.786   1.869
  290SL       O 4338   1.168   1.866   1.760
  290SL       C 4339   1.152   1.614   1.837
  290SL       C 4340   1.024   1.556   1.777
  290SL       C 4341   0.909   1.624   1.850
  290SL       C 4342   0.938   1.772   1.849
  290SL       H 4343   1.238   1.606   1.769
  290SL       H 4344   1.175   1.566   1.932
  290SL       H 4345   1.021   1.447   1.787
  290SL       H 4346   1.019   1.581   1.670
  290SL       H 4347   0.905   1.587   1.954
  290SL       H 4348   0.812   1.601   1.804
  290SL       H 4349   0.888   1.827   1.929
  290SL       H 4350   0.912   1.816   1.752
  291SL       O 4351   3.129   3.793   0.961
  291SL       S 4352   3.002   3.745   1.009
  291SL       O 4353   2.882   3.753   0.927
  291SL       C 4354   3.022   3.577   1.065
  291SL       C 4355   2.967   3.576   1.207
  291SL       C 4356   3.007   3.710   1.269
  291SL       C 4357   2.968   3.816   1.169
  291SL       H 4358   2.969   3.508   0.998
  291SL       H 4359   3.129   3.554   1.064
  291SL       H 4360   3.006   3.491   1.264
  291SL       H 4361   2.857   3.568   1.205
  291SL       H 4362   3.116   3.711   1.285
  291SL       H 4363   2.959   3.726   1.366
  291SL       H 4364   3.025   3.909   1.181
  291SL       H 4365   2.861   3.837   1.174
  292SL       O 4366   1.301   1.492   2.432
  292SL       S 4367   1.373   1.537   2.549
  292SL       O 4368   1.511   1.500   2.573
  292SL       C 4369   1.357   1.714   2.560
  292SL       C 4370   1.305   1.741   2.701
  292SL       C 4371   1.206   1.627   2.731
  292SL       C 4372   1.277   1.499   2.695
  292SL       H 4373   1.454   1.762   2.542
  292SL       H 4374   1.285   1.747   2.485
  292SL       H 4375   1.257   1.839   2.708
  292SL       H 4376   1.387   1.738   2.773
  292SL       H 4377   1.116   1.640   2.668
  292SL       H 4378   1.174   1.628   2.835
  292SL       H 4379   1.209   1.417   2.673
  292SL       H 4380   1.347   1.469   2.773
  293SL       O 4381   2.611   3.238   1.645
  293SL       S 4382   2.469   3.253   1.665
  293SL       O 4383   2.398   3.183   1.770
  293SL       C 4384   2.432   3.427   1.677
  293SL       C 4385   2.323   3.452   1.573
  293SL       C 4386   2.358   3.363   1.454
  293SL       C 4387   2.385   3.226   1.510
  293SL       H 4388   2.400   3.452   1.779
  293SL       H 4389   2.523   3.483   1.652
  293SL       H 4390   2.318   3.558   1.545
  293SL       H 4391   2.225   3.423   1.614
  293SL       H 4392   2.448   3.403   1.404
  293SL       H 4393   2.277   3.362   1.380
  293SL       H 4394   2.448   3.164   1.445
  293SL       H 4395   2.291   3.173   1.532
  294SL       O 4396   3.216   1.657   0.933
  294SL       S 4397   3.190   1.530   0.995
  294SL       O 4398   3.115   1.519   1.119
  294SL       C 4399   3.117   1.421   0.874
  294SL       C 4400   3.204   1.296   0.875
  294SL       C 4401   3.347   1.344   0.896
  294SL       C 4402   3.343   1.440   1.012
  294SL       H 4403   3.013   1.401   0.899
  294SL       H 4404   3.122   1.471   0.776
  294SL       H 4405   3.193   1.239   0.782
  294SL       H 4406   3.174   1.231   0.959
  294SL       H 4407   3.381   1.396   0.805
  294SL       H 4408   3.416   1.261   0.914
  294SL       H 4409   3.427   1.510   1.013
  294SL       H 4410   3.340   1.386   1.108
  295SL       O 4411   2.806   3.052   0.928
  295SL       S 4412   2.892   2.986   0.833
  295SL       O 4413   2.863   2.986   0.691
  295SL       C 4414   3.059   3.044   0.857
  295SL       C 4415   3.142   2.918   0.875
  295SL       C 4416   3.056   2.820   0.955
  295SL       C 4417   2.921   2.819   0.886
  295SL       H 4418   3.091   3.104   0.772
  295SL       H 4419   3.061   3.105   0.948
  295SL       H 4420   3.237   2.939   0.926
  295SL       H 4421   3.166   2.874   0.777
  295SL       H 4422   3.045   2.857   1.058
  295SL       H 4423   3.100   2.721   0.959
  295SL       H 4424   2.840   2.787   0.952
  295SL       H 4425   2.923   2.755   0.797
  296SL       O 4426   0.846   2.134   1.336
  296SL       S 4427   0.770   2.135   1.458
  296SL       O 4428   0.834   2.136   1.589
  296SL       C 4429   0.652   2.269   1.451
  296SL       C 4430   0.517   2.204   1.480
  296SL       C 4431   0.520   2.067   1.412
  296SL       C 4432   0.650   2.003   1.454
  296SL       H 4433   0.678   2.346   1.524
  296SL       H 4434   0.654   2.311   1.350
  296SL       H 4435   0.434   2.266   1.443
  296SL       H 4436   0.504   2.192   1.588
  296SL       H 4437   0.517   2.081   1.303
  296SL       H 4438   0.434   2.006   1.440
  296SL       H 4439   0.683   1.926   1.384
  296SL       H 4440   0.643   1.961   1.555
  297SL       O 4441   0.714   0.900   2.656
  297SL       S 4442   0.803   0.899   2.770
  297SL       O 4443   0.755   0.917   2.905
  297SL       C 4444   0.903   0.751   2.763
  297SL       C 4445   1.047   0.800   2.771
  297SL       C 4446   1.053   0.930   2.691
  297SL       C 4447   0.937   1.014   2.740
  297SL       H 4448   0.876   0.684   2.845
  297SL       H 4449   0.884   0.702   2.667
  297SL       H 4450   1.117   0.725   2.731
  297SL       H 4451   1.074   0.819   2.876
  297SL       H 4452   1.041   0.907   2.584
  297SL       H 4453   1.148   0.982   2.704
  297SL       H 4454   0.905   1.089   2.667
  297SL       H 4455   0.961   1.062   2.835
  298SL       O 4456   3.437   2.900   2.919
  298SL       S 4457   3.295   2.882   2.941
  298SL       O 4458   3.215   2.982   3.009
  298SL       C 4459   3.219   2.843   2.785
  298SL       C 4460   3.141   2.714   2.810
  298SL       C 4461   3.227   2.631   2.905
  298SL       C 4462   3.267   2.724   3.017
  298SL       H 4463   3.154   2.926   2.753
  298SL       H 4464   3.298   2.828   2.711
  298SL       H 4465   3.121   2.661   2.716
  298SL       H 4466   3.045   2.737   2.857
  298SL       H 4467   3.317   2.596   2.851
  298SL       H 4468   3.174   2.543   2.942
  298SL       H 4469   3.358   2.691   3.069
  298SL       H 4470   3.186   2.735   3.089
  299SL       O 4471   1.049   1.015   3.699
  299SL       S 4472   1.029   1.074   3.829
  299SL       O 4473   1.103   1.192   3.871
  299SL       C 4474   0.855   1.104   3.851
  299SL       C 4475   0.820   1.036   3.983
  299SL       C 4476   0.903   0.908   3.988
  299SL       C 4477   1.044   0.948   3.954
  299SL       H 4478   0.834   1.211   3.853
  299SL       H 4479   0.801   1.057   3.768
  299SL       H 4480   0.713   1.015   3.991
  299SL       H 4481   0.847   1.101   4.068
  299SL       H 4482   0.864   0.836   3.913
  299SL       H 4483   0.897   0.859   4.086
  299SL       H 4484   1.104   0.865   3.915
  299SL       H 4485   1.095   0.993   4.040
  300SL       O 4486   3.886   1.950   0.345
  300SL       S 4487   3.993   1.853   0.340
  300SL       O 4488   4.120   1.882   0.278
  300SL       C 4489   4.022   1.793   0.506
  300SL       C 4490   4.012   1.641   0.494
  300SL       C 4491   3.901   1.612   0.394
  300SL       C 4492   3.930   1.700   0.274
  300SL       H 4493   4.119   1.826   0.541
  300SL       H 4494   3.943   1.832   0.570
  300SL       H 4495   3.992   1.595   0.592
  300SL       H 4496   4.107   1.600   0.457
  300SL       H 4497   3.804   1.639   0.438
  300SL       H 4498   3.896   1.507   0.366
  300SL       H 4499   3.841   1.720   0.213
  300SL       H 4500   4.008   1.656   0.211
  301SL       O 4501   3.879   2.190   2.313
  301SL       S 4502   3.744   2.186   2.260
  301SL       O 4503   3.714   2.225   2.124
  301SL       C 4504   3.676   2.024   2.290
  301SL       C 4505   3.544   2.049   2.363
  301SL       C 4506   3.569   2.168   2.455
  301SL       C 4507   3.636   2.274   2.370
  301SL       H 4508   3.663   1.970   2.196
  301SL       H 4509   3.746   1.969   2.354
  301SL       H 4510   3.511   1.961   2.418
  301SL       H 4511   3.466   2.075   2.290
  301SL       H 4512   3.636   2.137   2.537
  301SL       H 4513   3.477   2.205   2.500
  301SL       H 4514   3.694   2.346   2.429
  301SL       H 4515   3.562   2.327   2.309
  302SL       O 4516   0.107   3.333   2.850
  302SL       S 4517   0.230   3.343   2.925
  302SL       O 4518   0.283   3.232   3.001
  302SL       C 4519   0.357   3.405   2.816
  302SL       C 4520   0.415   3.526   2.888
  302SL       C 4521   0.297   3.596   2.956
  302SL       C 4522   0.222   3.487   3.030
  302SL       H 4523   0.432   3.327   2.798
  302SL       H 4524   0.310   3.435   2.722
  302SL       H 4525   0.466   3.594   2.818
  302SL       H 4526   0.487   3.494   2.964
  302SL       H 4527   0.232   3.641   2.880
  302SL       H 4528   0.329   3.675   3.024
  302SL       H 4529   0.117   3.513   3.049
  302SL       H 4530   0.271   3.462   3.124
  303SL       O 4531   1.251   0.905   1.908
  303SL       S 4532   1.156   0.998   1.966
  303SL       O 4533   1.086   0.969   2.090
  303SL       C 4534   1.235   1.157   1.980
  303SL       C 4535   1.141   1.254   1.909
  303SL       C 4536   1.084   1.178   1.789
  303SL       C 4537   1.037   1.045   1.842
  303SL       H 4538   1.250   1.182   2.085
  303SL       H 4539   1.331   1.152   1.929
  303SL       H 4540   1.193   1.345   1.879
  303SL       H 4541   1.059   1.282   1.977
  303SL       H 4542   1.164   1.164   1.715
  303SL       H 4543   1.003   1.233   1.740
  303SL       H 4544   1.032   0.967   1.765
  303SL       H 4545   0.940   1.054   1.891
  304SL       O 4546   1.212   2.025   1.606
  304SL       S 4547   1.203   1.905   1.526
  304SL       O 4548   1.277   1.785   1.558
  304SL       C 4549   1.031   1.863   1.506
  304SL       C 4550   1.010   1.851   1.355
  304SL       C 4551   1.096   1.959   1.291
  304SL       C 4552   1.233   1.947   1.355
  304SL       H 4553   1.008   1.771   1.559
  304SL       H 4554   0.971   1.945   1.547
  304SL       H 4555   0.905   1.862   1.328
  304SL       H 4556   1.044   1.752   1.321
  304SL       H 4557   1.053   2.058   1.314
  304SL       H 4558   1.101   1.949   1.183
  304SL       H 4559   1.291   2.040   1.349
  304SL       H 4560   1.290   1.865   1.310
  305SL       O 4561   2.338   0.532   2.670
  305SL       S 4562   2.263   0.532   2.546
  305SL       O 4563   2.159   0.435   2.520
  305SL       C 4564   2.199   0.696   2.518
  305SL       C 4565   2.246   0.733   2.378
  305SL       C 4566   2.387   0.675   2.363
  305SL       C 4567   2.377   0.531   2.409
  305SL       H 4568   2.090   0.695   2.528
  305SL       H 4569   2.242   0.763   2.593
  305SL       H 4570   2.245   0.842   2.364
  305SL       H 4571   2.180   0.689   2.303
  305SL       H 4572   2.456   0.732   2.428
  305SL       H 4573   2.423   0.683   2.261
  305SL       H 4574   2.474   0.491   2.441
  305SL       H 4575   2.335   0.468   2.331
  306SL       O 4576   3.916   1.408   1.010
  306SL       S 4577   3.853   1.332   0.904
  306SL       O 4578   3.858   1.376   0.766
  306SL       C 4579   3.911   1.164   0.913
  306SL       C 4580   3.785   1.079   0.917
  306SL       C 4581   3.684   1.157   1.002
  306SL       C 4582   3.684   1.298   0.948
  306SL       H 4583   3.974   1.141   0.826
  306SL       H 4584   3.969   1.153   1.005
  306SL       H 4585   3.805   0.980   0.959
  306SL       H 4586   3.745   1.065   0.816
  306SL       H 4587   3.718   1.156   1.107
  306SL       H 4588   3.585   1.112   0.999
  306SL       H 4589   3.649   1.372   1.021
  306SL       H 4590   3.624   1.305   0.857
  307SL       O 4591   1.959   1.031   2.875
  307SL       S 4592   2.089   0.969   2.864
  307SL       O 4593   2.172   0.985   2.747
  307SL       C 4594   2.183   1.012   3.009
  307SL       C 4595   2.231   0.878   3.066
  307SL       C 4596   2.115   0.780   3.045
  307SL       C 4597   2.074   0.795   2.901
  307SL       H 4598   2.266   1.077   2.982
  307SL       H 4599   2.117   1.063   3.079
  307SL       H 4600   2.257   0.887   3.172
  307SL       H 4601   2.319   0.843   3.012
  307SL       H 4602   2.032   0.807   3.112
  307SL       H 4603   2.144   0.677   3.069
  307SL       H 4604   1.971   0.762   2.882
  307SL       H 4605   2.142   0.741   2.834
  308SL       O 4606   4.120   3.021   0.868
  308SL       S 4607   4.061   2.889   0.872
  308SL       O 4608   4.121   2.781   0.948
  308SL       C 4609   3.890   2.905   0.919
  308SL       C 4610   3.812   2.832   0.810
  308SL       C 4611   3.885   2.861   0.679
  308SL       C 4612   4.031   2.834   0.706
  308SL       H 4613   3.874   2.862   1.019
  308SL       H 4614   3.865   3.012   0.920
  308SL       H 4615   3.708   2.865   0.807
  308SL       H 4616   3.813   2.724   0.830
  308SL       H 4617   3.870   2.967   0.652
  308SL       H 4618   3.846   2.801   0.597
  308SL       H 4619   4.098   2.887   0.637
  308SL       H 4620   4.052   2.726   0.702
  309SL       O 4621   2.597   4.054   2.457
  309SL       S 4622   2.511   3.959   2.392
  309SL       O 4623   2.389   3.999   2.324
  309SL       C 4624   2.610   3.862   2.279
  309SL       C 4625   2.581   3.716   2.317
  309SL       C 4626   2.568   3.714   2.469
  309SL       C 4627   2.473   3.826   2.505
  309SL       H 4628   2.582   3.884   2.176
  309SL       H 4629   2.715   3.886   2.296
  309SL       H 4630   2.661   3.650   2.282
  309SL       H 4631   2.487   3.684   2.271
  309SL       H 4632   2.667   3.732   2.514
  309SL       H 4633   2.532   3.617   2.505
  309SL       H 4634   2.486   3.861   2.608
  309SL       H 4635   2.369   3.797   2.488
  310SL       O 4636   1.460   2.150   2.941
  310SL       S 4637   1.370   2.055   3.002
  310SL       O 4638   1.260   1.995   2.929
  310SL       C 4639   1.467   1.925   3.077
  310SL       C 4640   1.419   1.918   3.222
  310SL       C 4641   1.392   2.063   3.264
  310SL       C 4642   1.307   2.123   3.155
  310SL       H 4643   1.452   1.831   3.023
  310SL       H 4644   1.572   1.954   3.072
  310SL       H 4645   1.494   1.871   3.286
  310SL       H 4646   1.327   1.860   3.228
  310SL       H 4647   1.488   2.117   3.273
  310SL       H 4648   1.343   2.068   3.361
  310SL       H 4649   1.314   2.232   3.151
  310SL       H 4650   1.203   2.093   3.165
  311SL       O 4651   3.133   3.106   1.884
  311SL       S 4652   3.179   3.041   2.005
  311SL       O 4653   3.223   3.117   2.121
  311SL       C 4654   3.055   2.923   2.056
  311SL       C 4655   3.130   2.791   2.071
  311SL       C 4656   3.234   2.788   1.958
  311SL       C 4657   3.304   2.922   1.963
  311SL       H 4658   3.008   2.956   2.150
  311SL       H 4659   2.980   2.916   1.977
  311SL       H 4660   3.062   2.706   2.066
  311SL       H 4661   3.182   2.788   2.168
  311SL       H 4662   3.182   2.776   1.862
  311SL       H 4663   3.304   2.705   1.969
  311SL       H 4664   3.350   2.949   1.867
  311SL       H 4665   3.380   2.924   2.042
  312SL       O 4666   2.179   2.393   0.689
  312SL       S 4667   2.204   2.285   0.596
  312SL       O 4668   2.138   2.278   0.467
  312SL       C 4669   2.380   2.271   0.573
  312SL       C 4670   2.412   2.125   0.602
  312SL       C 4671   2.322   2.084   0.718
  312SL       C 4672   2.182   2.130   0.680
  312SL       H 4673   2.407   2.300   0.471
  312SL       H 4674   2.430   2.337   0.644
  312SL       H 4675   2.518   2.111   0.627
  312SL       H 4676   2.390   2.063   0.514
  312SL       H 4677   2.355   2.135   0.810
  312SL       H 4678   2.325   1.977   0.737
  312SL       H 4679   2.117   2.143   0.767
  312SL       H 4680   2.136   2.060   0.610
  313SL       O 4681   2.831   0.439   2.208
  313SL       S 4682   2.935   0.496   2.290
  313SL       O 4683   3.074   0.498   2.247
  313SL       C 4684   2.887   0.660   2.337
  313SL       C 4685   2.898   0.663   2.489
  313SL       C 4686   2.852   0.525   2.538
  313SL       C 4687   2.927   0.424   2.453
  313SL       H 4688   2.952   0.734   2.289
  313SL       H 4689   2.783   0.676   2.306
  313SL       H 4690   2.838   0.743   2.533
  313SL       H 4691   3.003   0.679   2.519
  313SL       H 4692   2.744   0.516   2.521
  313SL       H 4693   2.871   0.511   2.644
  313SL       H 4694   2.876   0.327   2.448
  313SL       H 4695   3.029   0.411   2.489
  314SL       O 4696   1.192   3.429   2.321
  314SL       S 4697   1.179   3.330   2.217
  314SL       O 4698   1.163   3.368   2.077
  314SL       C 4699   1.313   3.214   2.231
  314SL       C 4700   1.247   3.077   2.236
  314SL       C 4701   1.119   3.095   2.318
  314SL       C 4702   1.049   3.216   2.260
  314SL       H 4703   1.381   3.224   2.145
  314SL       H 4704   1.367   3.235   2.323
  314SL       H 4705   1.313   3.002   2.281
  314SL       H 4706   1.221   3.043   2.135
  314SL       H 4707   1.146   3.114   2.424
  314SL       H 4708   1.055   3.006   2.315
  314SL       H 4709   0.980   3.264   2.331
  314SL       H 4710   0.995   3.190   2.168
  315SL       O 4711   2.714   1.550   4.012
  315SL       S 4712   2.704   1.434   3.927
  315SL       O 4713   2.762   1.431   3.794
  315SL       C 4714   2.763   1.292   4.018
  315SL       C 4715   2.650   1.189   4.009
  315SL       C 4716   2.520   1.269   4.017
  315SL       C 4717   2.534   1.382   3.917
  315SL       H 4718   2.857   1.256   3.975
  315SL       H 4719   2.779   1.322   4.122
  315SL       H 4720   2.657   1.115   4.089
  315SL       H 4721   2.655   1.137   3.913
  315SL       H 4722   2.508   1.309   4.119
  315SL       H 4723   2.433   1.207   3.995
  315SL       H 4724   2.468   1.467   3.940
  315SL       H 4725   2.515   1.347   3.815
  316SL       O 4726   0.100   2.493   1.911
  316SL       S 4727   0.178   2.480   1.791
  316SL       O 4728   0.151   2.559   1.672
  316SL       C 4729   0.351   2.496   1.833
  316SL       C 4730   0.418   2.372   1.776
  316SL       C 4731   0.318   2.257   1.795
  316SL       C 4732   0.186   2.308   1.744
  316SL       H 4733   0.391   2.589   1.791
  316SL       H 4734   0.359   2.498   1.942
  316SL       H 4735   0.513   2.351   1.825
  316SL       H 4736   0.437   2.385   1.669
  316SL       H 4737   0.311   2.234   1.903
  316SL       H 4738   0.350   2.166   1.744
  316SL       H 4739   0.100   2.255   1.787
  316SL       H 4740   0.181   2.303   1.635
  317SL       O 4741   0.393   3.884   0.543
  317SL       S 4742   0.505   3.828   0.615
  317SL       O 4743   0.510   3.828   0.760
  317SL       C 4744   0.532   3.661   0.557
  317SL       C 4745   0.679   3.657   0.518
  317SL       C 4746   0.711   3.793   0.456
  317SL       C 4747   0.657   3.896   0.552
  317SL       H 4748   0.507   3.589   0.636
  317SL       H 4749   0.468   3.645   0.470
  317SL       H 4750   0.700   3.575   0.448
  317SL       H 4751   0.742   3.642   0.607
  317SL       H 4752   0.660   3.801   0.359
  317SL       H 4753   0.818   3.806   0.439
  317SL       H 4754   0.636   3.993   0.505
  317SL       H 4755   0.724   3.911   0.637
  318SL       O 4756   3.355   3.888   2.421
  318SL       S 4757   3.408   3.785   2.335
  318SL       O 4758   3.437   3.652   2.383
  318SL       C 4759   3.305   3.774   2.190
  318SL       C 4760   3.400   3.789   2.072
  318SL       C 4761   3.505   3.892   2.114
  318SL       C 4762   3.553   3.849   2.251
  318SL       H 4763   3.252   3.679   2.189
  318SL       H 4764   3.233   3.857   2.193
  318SL       H 4765   3.347   3.820   1.981
  318SL       H 4766   3.449   3.693   2.051
  318SL       H 4767   3.458   3.991   2.120
  318SL       H 4768   3.587   3.898   2.043
  318SL       H 4769   3.596   3.931   2.309
  318SL       H 4770   3.625   3.767   2.244
  319SL       O 4771   1.960   2.156   0.507
  319SL       S 4772   1.848   2.065   0.513
  319SL       O 4773   1.712   2.112   0.534
  319SL       C 4774   1.852   1.961   0.369
  319SL       C 4775   1.847   1.818   0.423
  319SL       C 4776   1.931   1.818   0.550
  319SL       C 4777   1.883   1.937   0.632
  319SL       H 4778   1.767   1.984   0.303
  319SL       H 4779   1.946   1.979   0.316
  319SL       H 4780   1.885   1.747   0.349
  319SL       H 4781   1.744   1.791   0.446
  319SL       H 4782   2.037   1.831   0.524
  319SL       H 4783   1.921   1.725   0.606
  319SL       H 4784   1.958   1.972   0.703
  319SL       H 4785   1.790   1.913   0.684
  320SL       O 4786   3.577   2.735   1.059
  320SL       S 4787   3.547   2.603   1.010
  320SL       O 4788   3.598   2.555   0.883
  320SL       C 4789   3.586   2.484   1.137
  320SL       C 4790   3.459   2.402   1.155
  320SL       C 4791   3.343   2.500   1.140
  320SL       C 4792   3.370   2.578   1.013
  320SL       H 4793   3.672   2.423   1.106
  320SL       H 4794   3.611   2.539   1.228
  320SL       H 4795   3.457   2.352   1.253
  320SL       H 4796   3.453   2.325   1.078
  320SL       H 4797   3.341   2.568   1.227
  320SL       H 4798   3.246   2.449   1.136
  320SL       H 4799   3.320   2.675   1.011
  320SL       H 4800   3.343   2.520   0.925
  321SL       O 4801   1.948   2.981   3.440
  321SL       S 4802   1.814   3.008   3.486
  321SL       O 4803   1.785   3.045   3.623
  321SL       C 4804   1.739   3.127   3.377
  321SL       C 4805   1.609   3.063   3.331
  321SL       C 4806   1.638   2.914   3.314
  321SL       C 4807   1.709   2.871   3.440
  321SL       H 4808   1.724   3.222   3.429
  321SL       H 4809   1.807   3.143   3.292
  321SL       H 4810   1.572   3.108   3.238
  321SL       H 4811   1.531   3.077   3.408
  321SL       H 4812   1.704   2.900   3.226
  321SL       H 4813   1.548   2.856   3.296
  321SL       H 4814   1.770   2.781   3.426
  321SL       H 4815   1.638   2.855   3.522
  322SL       O 4816   0.393   2.920   3.618
  322SL       S 4817   0.329   2.998   3.721
  322SL       O 4818   0.311   2.947   3.856
  322SL       C 4819   0.406   3.158   3.729
  322SL       C 4820   0.292   3.258   3.715
  322SL       C 4821   0.194   3.197   3.615
  322SL       C 4822   0.171   3.055   3.661
  322SL       H 4823   0.461   3.169   3.823
  322SL       H 4824   0.475   3.166   3.644
  322SL       H 4825   0.328   3.356   3.682
  322SL       H 4826   0.242   3.272   3.812
  322SL       H 4827   0.239   3.198   3.515
  322SL       H 4828   0.100   3.254   3.610
  322SL       H 4829   0.137   2.989   3.580
  322SL       H 4830   0.100   3.051   3.744
  323SL       O 4831   2.708   2.241   0.571
  323SL       S 4832   2.730   2.383   0.551
  323SL       O 4833   2.703   2.447   0.424
  323SL       C 4834   2.647   2.472   0.680
  323SL       C 4835   2.753   2.562   0.742
  323SL       C 4836   2.883   2.481   0.742
  323SL       C 4837   2.896   2.424   0.602
  323SL       H 4838   2.563   2.529   0.639
  323SL       H 4839   2.610   2.400   0.754
  323SL       H 4840   2.726   2.594   0.843
  323SL       H 4841   2.767   2.652   0.681
  323SL       H 4842   2.874   2.399   0.815
  323SL       H 4843   2.969   2.541   0.769
  323SL       H 4844   2.959   2.335   0.598
  323SL       H 4845   2.935   2.499   0.533
  324SL       O 4846   4.121   2.004   1.637
  324SL       S 4847   4.064   1.941   1.754
  324SL       O 4848   4.120   1.820   1.811
  324SL       C 4849   4.050   2.064   1.883
  324SL       C 4850   3.904   2.058   1.927
  324SL       C 4851   3.822   2.033   1.801
  324SL       C 4852   3.889   1.917   1.730
  324SL       H 4853   4.119   2.042   1.964
  324SL       H 4854   4.073   2.162   1.839
  324SL       H 4855   3.873   2.150   1.977
  324SL       H 4856   3.889   1.975   1.997
  324SL       H 4857   3.824   2.123   1.737
  324SL       H 4858   3.717   2.011   1.823
  324SL       H 4859   3.867   1.915   1.622
  324SL       H 4860   3.862   1.822   1.775
  325SL       O 4861   3.348   0.354   1.046
  325SL       S 4862   3.224   0.336   1.118
  325SL       O 4863   3.205   0.226   1.211
  325SL       C 4864   3.183   0.489   1.200
  325SL       C 4865   3.041   0.521   1.155
  325SL       C 4866   3.032   0.478   1.009
  325SL       C 4867   3.088   0.338   1.003
  325SL       H 4868   3.191   0.477   1.308
  325SL       H 4869   3.253   0.566   1.165
  325SL       H 4870   3.018   0.627   1.168
  325SL       H 4871   2.969   0.463   1.215
  325SL       H 4872   3.092   0.546   0.947
  325SL       H 4873   2.929   0.482   0.971
  325SL       H 4874   3.124   0.310   0.903
  325SL       H 4875   3.015   0.264   1.036
  326SL       O 4876   0.693   1.607   1.027
  326SL       S 4877   0.790   1.674   0.943
  326SL       O 4878   0.752   1.777   0.849
  326SL       C 4879   0.922   1.734   1.046
  326SL       C 4880   1.050   1.677   0.984
  326SL       C 4881   1.014   1.536   0.936
  326SL       C 4882   0.886   1.551   0.857
  326SL       H 4883   0.922   1.843   1.048
  326SL       H 4884   0.908   1.695   1.147
  326SL       H 4885   1.132   1.675   1.056
  326SL       H 4886   1.081   1.739   0.899
  326SL       H 4887   0.998   1.471   1.023
  326SL       H 4888   1.094   1.493   0.875
  326SL       H 4889   0.829   1.457   0.850
  326SL       H 4890   0.906   1.588   0.756
  327SL       O 4891   0.456   1.115   0.440
  327SL       S 4892   0.425   1.034   0.325
  327SL       O 4893   0.436   1.085   0.190
  327SL       C 4894   0.516   0.881   0.337
  327SL       C 4895   0.411   0.771   0.323
  327SL       C 4896   0.287   0.821   0.396
  327SL       C 4897   0.263   0.962   0.346
  327SL       H 4898   0.592   0.877   0.259
  327SL       H 4899   0.563   0.877   0.436
  327SL       H 4900   0.447   0.676   0.364
  327SL       H 4901   0.388   0.755   0.217
  327SL       H 4902   0.307   0.822   0.505
  327SL       H 4903   0.200   0.757   0.379
  327SL       H 4904   0.204   1.023   0.416
  327SL       H 4905   0.214   0.961   0.248
  328SL       O 4906   2.505   1.578   0.277
  328SL       S 4907   2.398   1.596   0.373
  328SL       O 4908   2.398   1.705   0.469
  328SL       C 4909   2.243   1.596   0.284
  328SL       C 4910   2.158   1.490   0.354
  328SL       C 4911   2.253   1.377   0.391
  328SL       C 4912   2.371   1.443   0.460
  328SL       H 4913   2.198   1.696   0.288
  328SL       H 4914   2.263   1.569   0.181
  328SL       H 4915   2.077   1.455   0.288
  328SL       H 4916   2.112   1.532   0.444
  328SL       H 4917   2.286   1.326   0.299
  328SL       H 4918   2.205   1.303   0.455
  328SL       H 4919   2.462   1.382   0.456
  328SL       H 4920   2.347   1.467   0.564
  329SL       O 4921   2.498   0.279   0.100
  329SL       S 4922   2.452   0.332   0.226
  329SL       O 4923   2.420   0.246   0.339
  329SL       C 4924   2.566   0.458   0.280
  329SL       C 4925   2.480   0.581   0.306
  329SL       C 4926   2.372   0.581   0.198
  329SL       C 4927   2.314   0.441   0.197
  329SL       H 4928   2.620   0.425   0.369
  329SL       H 4929   2.637   0.477   0.198
  329SL       H 4930   2.539   0.673   0.303
  329SL       H 4931   2.433   0.574   0.405
  329SL       H 4932   2.418   0.604   0.100
  329SL       H 4933   2.295   0.656   0.216
  329SL       H 4934   2.266   0.415   0.102
  329SL       H 4935   2.243   0.428   0.279
  330SL       O 4936   3.933   3.355   3.757
  330SL       S 4937   3.906   3.355   3.898
  330SL       O 4938   3.958   3.458   3.986
  330SL       C 4939   3.730   3.341   3.922
  330SL       C 4940   3.712   3.223   4.016
  330SL       C 4941   3.818   3.120   3.976
  330SL       C 4942   3.948   3.196   3.966
  330SL       H 4943   3.690   3.434   3.964
  330SL       H 4944   3.684   3.321   3.825
  330SL       H 4945   3.611   3.181   4.010
  330SL       H 4946   3.729   3.254   4.120
  330SL       H 4947   3.791   3.077   3.877
  330SL       H 4948   3.824   3.037   4.047
  330SL       H 4949   4.021   3.146   3.901
  330SL       H 4950   3.991   3.212   4.065
  331SL       O 4951   3.006   3.577   3.183
  331SL       S 4952   2.997   3.464   3.274
  331SL       O 4953   3.111   3.378   3.300
  331SL       C 4954   2.929   3.521   3.428
  331SL       C 4955   2.810   3.429   3.456
  331SL       C 4956   2.745   3.403   3.320
  331SL       C 4957   2.858   3.363   3.227
  331SL       H 4958   3.005   3.516   3.507
  331SL       H 4959   2.896   3.624   3.415
  331SL       H 4960   2.740   3.475   3.526
  331SL       H 4961   2.845   3.335   3.499
  331SL       H 4962   2.697   3.495   3.284
  331SL       H 4963   2.668   3.325   3.325
  331SL       H 4964   2.834   3.379   3.121
  331SL       H 4965   2.886   3.258   3.242
  332SL       O 4966   0.105   3.546   1.011
  332SL       S 4967   0.159   3.641   0.917
  332SL       O 4968   0.100   3.660   0.785
  332SL       C 4969   0.172   3.800   0.998
  332SL       C 4970   0.316   3.843   0.977
  332SL       C 4971   0.401   3.716   0.988
  332SL       C 4972   0.334   3.614   0.898
  332SL       H 4973   0.100   3.870   0.955
  332SL       H 4974   0.150   3.785   1.104
  332SL       H 4975   0.347   3.918   1.051
  332SL       H 4976   0.329   3.887   0.877
  332SL       H 4977   0.400   3.681   1.092
  332SL       H 4978   0.504   3.733   0.959
  332SL       H 4979   0.358   3.511   0.926
  332SL       H 4980   0.359   3.631   0.793
  333SL       O 4981   3.299   1.481   2.068
  333SL       S 4982   3.435   1.526   2.057
  333SL       O 4983   3.542   1.439   2.012
  333SL       C 4984   3.437   1.675   1.959
  333SL       C 4985   3.511   1.778   2.044
  333SL       C 4986   3.469   1.751   2.189
  333SL       C 4987   3.485   1.602   2.210
  333SL       H 4988   3.486   1.657   1.863
  333SL       H 4989   3.334   1.706   1.942
  333SL       H 4990   3.488   1.880   2.014
  333SL       H 4991   3.620   1.763   2.035
  333SL       H 4992   3.363   1.781   2.202
  333SL       H 4993   3.528   1.809   2.260
  333SL       H 4994   3.422   1.564   2.292
  333SL       H 4995   3.589   1.576   2.228
  334SL       O 4996   2.453   1.174   1.572
  334SL       S 4997   2.488   1.289   1.492
  334SL       O 4998   2.518   1.278   1.351
  334SL       C 4999   2.364   1.415   1.516
  334SL       C 5000   2.442   1.539   1.557
  334SL       C 5001   2.556   1.491   1.647
  334SL       C 5002   2.621   1.376   1.573
  334SL       H 5003   2.308   1.429   1.423
  334SL       H 5004   2.297   1.382   1.596
  334SL       H 5005   2.377   1.611   1.609
  334SL       H 5006   2.483   1.589   1.469
  334SL       H 5007   2.514   1.455   1.743
  334SL       H 5008   2.627   1.570   1.670
  334SL       H 5009   2.676   1.308   1.639
  334SL       H 5010   2.689   1.414   1.495
  335SL       O 5011   3.394   2.869   0.545
  335SL       S 5012   3.427   2.777   0.651
  335SL       O 5013   3.430   2.818   0.790
  335SL       C 5014   3.323   2.633   0.636
  335SL       C 5015   3.419   2.515   0.633
  335SL       C 5016   3.541   2.561   0.553
  335SL       C 5017   3.580   2.695   0.612
  335SL       H 5018   3.253   2.628   0.719
  335SL       H 5019   3.268   2.641   0.542
  335SL       H 5020   3.373   2.427   0.588
  335SL       H 5021   3.450   2.489   0.735
  335SL       H 5022   3.513   2.573   0.447
  335SL       H 5023   3.623   2.490   0.559
  335SL       H 5024   3.638   2.757   0.542
  335SL       H 5025   3.637   2.683   0.705
  336SL       O 5026   2.478   2.424   1.826
  336SL       S 5027   2.397   2.543   1.809
  336SL       O 5028   2.421   2.663   1.887
  336SL       C 5029   2.394   2.585   1.636
  336SL       C 5030   2.246   2.597   1.601
  336SL       C 5031   2.175   2.487   1.681
  336SL       C 5032   2.225   2.500   1.823
  336SL       H 5033   2.448   2.679   1.619
  336SL       H 5034   2.441   2.504   1.580
  336SL       H 5035   2.229   2.585   1.494
  336SL       H 5036   2.207   2.695   1.632
  336SL       H 5037   2.202   2.388   1.639
  336SL       H 5038   2.066   2.496   1.675
  336SL       H 5039   2.215   2.407   1.880
  336SL       H 5040   2.174   2.581   1.876
  337SL       O 5041   3.206   2.531   2.062
  337SL       S 5042   3.168   2.438   2.166
  337SL       O 5043   3.081   2.326   2.139
  337SL       C 5044   3.315   2.380   2.247
  337SL       C 5045   3.292   2.406   2.396
  337SL       C 5046   3.217   2.540   2.404
  337SL       C 5047   3.103   2.529   2.305
  337SL       H 5048   3.331   2.274   2.225
  337SL       H 5049   3.400   2.438   2.210
  337SL       H 5050   3.386   2.409   2.451
  337SL       H 5051   3.230   2.327   2.439
  337SL       H 5052   3.285   2.621   2.375
  337SL       H 5053   3.181   2.560   2.505
  337SL       H 5054   3.067   2.627   2.271
  337SL       H 5055   3.020   2.472   2.347
  338SL       O 5056   1.435   2.493   1.324
  338SL       S 5057   1.387   2.502   1.460
  338SL       O 5058   1.389   2.627   1.534
  338SL       C 5059   1.223   2.434   1.467
  338SL       C 5060   1.228   2.329   1.578
  338SL       C 5061   1.366   2.263   1.567
  338SL       C 5062   1.466   2.376   1.559
  338SL       H 5063   1.150   2.513   1.488
  338SL       H 5064   1.201   2.387   1.371
  338SL       H 5065   1.147   2.256   1.568
  338SL       H 5066   1.218   2.377   1.676
  338SL       H 5067   1.370   2.202   1.476
  338SL       H 5068   1.386   2.197   1.652
  338SL       H 5069   1.560   2.346   1.512
  338SL       H 5070   1.486   2.419   1.658
  339SL       O 5071   1.745   2.987   1.590
  339SL       S 5072   1.655   3.099   1.609
  339SL       O 5073   1.582   3.157   1.498
  339SL       C 5074   1.541   3.058   1.739
  339SL       C 5075   1.552   3.174   1.838
  339SL       C 5076   1.699   3.215   1.840
  339SL       C 5077   1.741   3.229   1.696
  339SL       H 5078   1.440   3.047   1.699
  339SL       H 5079   1.574   2.965   1.786
  339SL       H 5080   1.516   3.146   1.937
  339SL       H 5081   1.491   3.259   1.803
  339SL       H 5082   1.758   3.136   1.890
  339SL       H 5083   1.715   3.307   1.896
  339SL       H 5084   1.849   3.218   1.681
  339SL       H 5085   1.707   3.324   1.654
  340SL       O 5086   3.823   3.382   1.907
  340SL       S 5087   3.740   3.375   1.790
  340SL       O 5088   3.792   3.334   1.661
  340SL       C 5089   3.596   3.277   1.828
  340SL       C 5090   3.477   3.365   1.790
  340SL       C 5091   3.516   3.508   1.828
  340SL       C 5092   3.654   3.531   1.770
  340SL       H 5093   3.598   3.184   1.772
  340SL       H 5094   3.596   3.257   1.935
  340SL       H 5095   3.386   3.333   1.841
  340SL       H 5096   3.459   3.360   1.682
  340SL       H 5097   3.519   3.517   1.938
  340SL       H 5098   3.444   3.582   1.790
  340SL       H 5099   3.710   3.610   1.821
  340SL       H 5100   3.649   3.552   1.663
   4.22000   4.22000   4.22000
