A Gromacs structure file written by ASE 
   15
    1TFSI     O    1   0.114   0.236   0.109  0.0000  0.0000  0.0000
    1TFSI     S    2   0.070   0.116   0.037  0.0000  0.0000  0.0000
    1TFSI     O    3   0.011   0.147  -0.093  0.0000  0.0000  0.0000
    1TFSI     N    4  -0.013   0.018   0.130  0.0000  0.0000  0.0000
    1TFSI     S    5  -0.078  -0.105   0.054  0.0000  0.0000  0.0000
    1TFSI     O    6  -0.140  -0.201   0.146  0.0000  0.0000  0.0000
    1TFSI     O    7   0.006  -0.170  -0.047  0.0000  0.0000  0.0000
    1TFSI     C    8  -0.219  -0.024  -0.035  0.0000  0.0000  0.0000
    1TFSI     F    9  -0.254   0.096   0.020  0.0000  0.0000  0.0000
    1TFSI     F   10  -0.332  -0.101  -0.028  0.0000  0.0000  0.0000
    1TFSI     F   11  -0.197  -0.005  -0.168  0.0000  0.0000  0.0000
    1TFSI     C   12   0.224   0.017   0.008  0.0000  0.0000  0.0000
    1TFSI     F   13   0.242  -0.081   0.100  0.0000  0.0000  0.0000
    1TFSI     F   14   0.336   0.096   0.017  0.0000  0.0000  0.0000
    1TFSI     F   15   0.230  -0.040  -0.116  0.0000  0.0000  0.0000

