A Gromacs structure file written by ASE 
   15
    1SL       O    1  -0.234   0.058   0.072  0.0000  0.0000  0.0000
    1SL       S    2  -0.141   0.027  -0.034  0.0000  0.0000  0.0000
    1SL       O    3  -0.182   0.022  -0.173  0.0000  0.0000  0.0000
    1SL       C    4   0.000   0.135  -0.019  0.0000  0.0000  0.0000
    1SL       C    5   0.121   0.042  -0.016  0.0000  0.0000  0.0000
    1SL       C    6   0.078  -0.081   0.064  0.0000  0.0000  0.0000
    1SL       C    7  -0.055  -0.124   0.006  0.0000  0.0000  0.0000
    1SL       H    8   0.003   0.205  -0.103  0.0000  0.0000  0.0000
    1SL       H    9  -0.009   0.190   0.075  0.0000  0.0000  0.0000
    1SL       H   10   0.208   0.091   0.029  0.0000  0.0000  0.0000
    1SL       H   11   0.148   0.012  -0.118  0.0000  0.0000  0.0000
    1SL       H   12   0.066  -0.053   0.170  0.0000  0.0000  0.0000
    1SL       H   13   0.152  -0.161   0.059  0.0000  0.0000  0.0000
    1SL       H   14  -0.115  -0.183   0.076  0.0000  0.0000  0.0000
    1SL       H   15  -0.041  -0.180  -0.087  0.0000  0.0000  0.0000

