; ITP file created by ByteFF-ML, 2026-09-16 23:22:27.373073

[ defaults ]
;     nbfunc   comb-rule   gen-pairs     fudgeLJ     fudgeQQ
           1           2         yes  0.50000000  0.50000000

#include "SL.itp"
#include "TfN.itp"
#include "LI.itp"

#include "SL.atp"
#include "TfN.atp"
#include "LI.atp"

[ system ]
Full System

[ molecules ]
;molecule            nmols
 SL                    180
 TfN                    60
 LI                     60