; ITP file created by ByteFF-ML, 2026-09-15 21:28:11.246516

[ moleculetype ]
;name             nrexcl
 BMIM                  3

[ atoms ]
;       nr            type      resi   res      atom      cgnr      charge          mass ; qtot
         1            c0bf         1   UNL        c0         1    -0.14853       12.0110 ; qtot   -0.149
         2            c1bf         1   UNL        c1         2     0.04490       12.0110 ; qtot   -0.104
         3            c2bf         1   UNL        c2         3    -0.02279       12.0110 ; qtot   -0.126
         4            c3bf         1   UNL        c3         4     0.04666       12.0110 ; qtot   -0.080
         5            n4bf         1   UNL        n4         5    -0.21600       14.0070 ; qtot   -0.296
         6            c5bf         1   UNL        c5         6    -0.15142       12.0110 ; qtot   -0.447
         7            c6bf         1   UNL        c6         7    -0.10473       12.0110 ; qtot   -0.552
         8            n7bf         1   UNL        n7         8     0.22624       14.0070 ; qtot   -0.326
         9            c8bf         1   UNL        c8         9    -0.09569       12.0110 ; qtot   -0.421
        10            c9bf         1   UNL        c9        10     0.16113       12.0110 ; qtot   -0.260
        11           h10bf         1   UNL       h10        11     0.04124        1.0080 ; qtot   -0.219
        12           h11bf         1   UNL       h11        12     0.04124        1.0080 ; qtot   -0.178
        13           h12bf         1   UNL       h12        13     0.04124        1.0080 ; qtot   -0.137
        14           h13bf         1   UNL       h13        14     0.00368        1.0080 ; qtot   -0.133
        15           h14bf         1   UNL       h14        15     0.00368        1.0080 ; qtot   -0.129
        16           h15bf         1   UNL       h15        16     0.03613        1.0080 ; qtot   -0.093
        17           h16bf         1   UNL       h16        17     0.03613        1.0080 ; qtot   -0.057
        18           h17bf         1   UNL       h17        18     0.07186        1.0080 ; qtot    0.015
        19           h18bf         1   UNL       h18        19     0.07186        1.0080 ; qtot    0.087
        20           h19bf         1   UNL       h19        20     0.19892        1.0080 ; qtot    0.286
        21           h20bf         1   UNL       h20        21     0.20419        1.0080 ; qtot    0.490
        22           h21bf         1   UNL       h21        22     0.11242        1.0080 ; qtot    0.602
        23           h22bf         1   UNL       h22        23     0.11242        1.0080 ; qtot    0.715
        24           h23bf         1   UNL       h23        24     0.11242        1.0080 ; qtot    0.827
        25           h24bf         1   UNL       h24        25     0.17280        1.0080 ; qtot    1.000

[ bonds ]
;       ai        aj funct               r               k
         1         2     1        0.152520   190229.490161
         1        11     1        0.109711   297490.112207
         1        12     1        0.109711   297490.112207
         1        13     1        0.109711   297490.086670
         2         3     1        0.153265   182073.243872
         2        14     1        0.109542   294185.048438
         2        15     1        0.109542   294185.048438
         3         4     1        0.153463   179256.909302
         3        16     1        0.109597   296759.827490
         3        17     1        0.109597   296759.827490
         4         5     1        0.147047   186017.029053
         4        18     1        0.109227   307056.594287
         4        19     1        0.109227   307056.568750
         5         6     1        0.138911   252054.282910
         5        10     1        0.134059   359833.857324
         6         7     1        0.136375   401767.731738
         6        20     1        0.107856   346566.920410
         7         8     1        0.139323   253572.081006
         7        21     1        0.108021   350128.478906
         8         9     1        0.149385   184854.592603
         8        10     1        0.134366   357119.901025
         9        22     1        0.108975   315876.294678
         9        23     1        0.108975   315876.294678
         9        24     1        0.108975   315876.371289
        10        25     1        0.108386   345450.182617

[ angles ]
;       ai        aj        ak funct           theta             cth
         1         2         3     1      113.237564      663.943903
         1         2        14     1      109.722404      510.805807
         1         2        15     1      109.722404      510.805807
         2         1        11     1      111.174789      520.066648
         2         1        12     1      111.174789      520.066648
         2         1        13     1      111.174805      520.066616
         2         3         4     1      113.417389      613.919451
         2         3        16     1      110.180283      509.599881
         2         3        17     1      110.180283      509.599881
         3         2        14     1      109.348091      512.734848
         3         2        15     1      109.348091      512.734848
         3         4         5     1      112.523163      589.614635
         3         4        18     1      111.344116      466.144690
         3         4        19     1      111.344109      466.144659
         4         3        16     1      108.630028      498.637023
         4         3        17     1      108.630028      498.637023
         4         5         6     1      125.919296      536.503513
         4         5        10     1      126.649071      480.111351
         5         4        18     1      107.283607      543.576781
         5         4        19     1      107.283600      543.576845
         5         6         7     1      105.448174      314.811333
         5         6        20     1      122.415771      426.397935
         5        10         8     1      106.841599      226.112015
         5        10        25     1      126.144180      381.527479
         6         5        10     1      107.090569      223.877549
         6         7         8     1      106.587822      299.854153
         6         7        21     1      132.323105      319.650137
         7         6        20     1      130.914124      319.197108
         7         8         9     1      125.602547      521.119192
         7         8        10     1      106.400856      240.117299
         8         7        21     1      123.725708      429.183555
         8         9        22     1      109.593513      508.058237
         8         9        23     1      109.593513      508.058237
         8         9        24     1      109.593491      508.058237
         8        10        25     1      125.487801      376.241744
         9         8        10     1      125.906944      446.620581
        11         1        12     1      107.695732      365.464637
        11         1        13     1      107.695747      365.464669
        12         1        13     1      107.695747      365.464669
        14         2        15     1      106.098930      361.008603
        16         3        17     1      106.639229      362.935378
        18         4        19     1      108.051025      346.127810
        22         9        23     1      109.857887      350.560477
        22         9        24     1      109.857880      350.560382
        23         9        24     1      109.857880      350.560382

[ dihedrals ] ; propers for gromacs 4.5 or higher, use funct 9
;       ai        aj        ak        al funct           phase               k        pn
         1         2         3         4     9        0.000000       -3.897455         1
         1         2         3         4     9      180.000000        3.363150         2
         1         2         3         4     9        0.000000        0.699233         3
         1         2         3         4     9      180.000000       -0.129411         4
         1         2         3        16     9        0.000000       -3.421462         1
         1         2         3        16     9      180.000000        3.813809         2
         1         2         3        16     9        0.000000        0.788096         3
         1         2         3        16     9      180.000000        0.085350         4
         1         2         3        17     9        0.000000       -3.421462         1
         1         2         3        17     9      180.000000        3.813809         2
         1         2         3        17     9        0.000000        0.788096         3
         1         2         3        17     9      180.000000        0.085350         4
         2         3         4         5     9        0.000000       -0.920262         1
         2         3         4         5     9      180.000000        2.678197         2
         2         3         4         5     9        0.000000        0.596964         3
         2         3         4         5     9      180.000000       -0.265139         4
         2         3         4        18     9        0.000000       -2.798512         1
         2         3         4        18     9      180.000000        4.051028         2
         2         3         4        18     9        0.000000        0.756766         3
         2         3         4        18     9      180.000000        0.000350         4
         2         3         4        19     9        0.000000       -2.798511         1
         2         3         4        19     9      180.000000        4.051028         2
         2         3         4        19     9        0.000000        0.756766         3
         2         3         4        19     9      180.000000        0.000350         4
         3         2         1        11     9        0.000000       -2.833434         1
         3         2         1        11     9      180.000000        4.732180         2
         3         2         1        11     9        0.000000        0.680800         3
         3         2         1        11     9      180.000000        0.088212         4
         3         2         1        12     9        0.000000       -2.833434         1
         3         2         1        12     9      180.000000        4.732180         2
         3         2         1        12     9        0.000000        0.680800         3
         3         2         1        12     9      180.000000        0.088212         4
         3         2         1        13     9        0.000000       -2.833435         1
         3         2         1        13     9      180.000000        4.732180         2
         3         2         1        13     9        0.000000        0.680800         3
         3         2         1        13     9      180.000000        0.088212         4
         3         4         5         6     9        0.000000        1.367991         1
         3         4         5         6     9      180.000000        0.926504         2
         3         4         5         6     9        0.000000        0.429072         3
         3         4         5         6     9      180.000000        0.023478         4
         3         4         5        10     9        0.000000        3.251330         1
         3         4         5        10     9      180.000000        0.511971         2
         3         4         5        10     9        0.000000       -0.109754         3
         3         4         5        10     9      180.000000        0.088209         4
         4         3         2        14     9        0.000000       -2.697843         1
         4         3         2        14     9      180.000000        4.458312         2
         4         3         2        14     9        0.000000        0.683252         3
         4         3         2        14     9      180.000000       -0.114545         4
         4         3         2        15     9        0.000000       -2.697843         1
         4         3         2        15     9      180.000000        4.458312         2
         4         3         2        15     9        0.000000        0.683252         3
         4         3         2        15     9      180.000000       -0.114545         4
         4         5         6         7     9        0.000000       -9.830957         1
         4         5         6         7     9      180.000000       14.964396         2
         4         5         6         7     9        0.000000        0.071384         3
         4         5         6         7     9      180.000000       -1.422360         4
         4         5         6        20     9        0.000000       12.767845         1
         4         5         6        20     9      180.000000        4.184203         2
         4         5         6        20     9        0.000000        0.254130         3
         4         5         6        20     9      180.000000        0.618807         4
         4         5        10         8     9        0.000000      -11.584136         1
         4         5        10         8     9      180.000000       19.011422         2
         4         5        10         8     9        0.000000        0.051044         3
         4         5        10         8     9      180.000000       -1.065499         4
         4         5        10        25     9        0.000000       13.559482         1
         4         5        10        25     9      180.000000        7.081492         2
         4         5        10        25     9        0.000000        0.284400         3
         4         5        10        25     9      180.000000        0.443334         4
         5         4         3        16     9        0.000000        0.359670         1
         5         4         3        16     9      180.000000        3.444010         2
         5         4         3        16     9        0.000000        0.677532         3
         5         4         3        16     9      180.000000       -0.210317         4
         5         4         3        17     9        0.000000        0.359669         1
         5         4         3        17     9      180.000000        3.444014         2
         5         4         3        17     9        0.000000        0.677532         3
         5         4         3        17     9      180.000000       -0.210317         4
         5         6         7         8     9        0.000000       -6.337779         1
         5         6         7         8     9      180.000000       51.945812         2
         5         6         7         8     9        0.000000      -11.559322         3
         5         6         7         8     9      180.000000       -8.137948         4
         5         6         7        21     9        0.000000        6.064837         1
         5         6         7        21     9      180.000000       16.313948         2
         5         6         7        21     9        0.000000       -0.148545         3
         5         6         7        21     9      180.000000        0.230377         4
         5        10         8         7     9        0.000000       -9.536725         1
         5        10         8         7     9      180.000000       48.320381         2
         5        10         8         7     9        0.000000      -10.354173         3
         5        10         8         7     9      180.000000       -6.626128         4
         5        10         8         9     9        0.000000       -8.189614         1
         5        10         8         9     9      180.000000       18.082049         2
         5        10         8         9     9        0.000000        0.004551         3
         5        10         8         9     9      180.000000       -1.131799         4
         6         5         4        18     9        0.000000        2.378590         1
         6         5         4        18     9      180.000000        1.407135         2
         6         5         4        18     9        0.000000        0.483137         3
         6         5         4        18     9      180.000000        0.033282         4
         6         5         4        19     9        0.000000        2.378588         1
         6         5         4        19     9      180.000000        1.407136         2
         6         5         4        19     9        0.000000        0.483138         3
         6         5         4        19     9      180.000000        0.033282         4
         6         5        10         8     9        0.000000       -5.976104         1
         6         5        10         8     9      180.000000       48.893250         2
         6         5        10         8     9        0.000000      -10.632332         3
         6         5        10         8     9      180.000000       -6.077061         4
         6         5        10        25     9        0.000000        9.686960         1
         6         5        10        25     9      180.000000       13.737439         2
         6         5        10        25     9        0.000000        0.389605         3
         6         5        10        25     9      180.000000        0.344757         4
         6         7         8         9     9        0.000000       -5.129617         1
         6         7         8         9     9      180.000000       16.225412         2
         6         7         8         9     9        0.000000       -0.515079         3
         6         7         8         9     9      180.000000       -1.273481         4
         6         7         8        10     9        0.000000      -34.314693         1
         6         7         8        10     9      180.000000       43.691197         2
         6         7         8        10     9        0.000000       -6.718061         3
         6         7         8        10     9      180.000000       -7.229147         4
         7         6         5        10     9        0.000000      -36.827784         1
         7         6         5        10     9      180.000000       42.224102         2
         7         6         5        10     9        0.000000       -6.081481         3
         7         6         5        10     9      180.000000       -6.717147         4
         7         8         9        22     9        0.000000        2.576654         1
         7         8         9        22     9      180.000000        2.180573         2
         7         8         9        22     9        0.000000        0.493377         3
         7         8         9        22     9      180.000000        0.070520         4
         7         8         9        23     9        0.000000        2.576654         1
         7         8         9        23     9      180.000000        2.180573         2
         7         8         9        23     9        0.000000        0.493377         3
         7         8         9        23     9      180.000000        0.070520         4
         7         8         9        24     9        0.000000        2.576656         1
         7         8         9        24     9      180.000000        2.180573         2
         7         8         9        24     9        0.000000        0.493376         3
         7         8         9        24     9      180.000000        0.070520         4
         7         8        10        25     9        0.000000        6.792928         1
         7         8        10        25     9      180.000000       14.790381         2
         7         8        10        25     9        0.000000        0.179571         3
         7         8        10        25     9      180.000000        0.495576         4
         8         7         6        20     9        0.000000        7.877736         1
         8         7         6        20     9      180.000000       16.076999         2
         8         7         6        20     9        0.000000       -0.159949         3
         8         7         6        20     9      180.000000        0.381908         4
         9         8         7        21     9        0.000000       10.750213         1
         9         8         7        21     9      180.000000        4.203836         2
         9         8         7        21     9        0.000000        0.232778         3
         9         8         7        21     9      180.000000        0.747284         4
         9         8        10        25     9        0.000000        9.966478         1
         9         8        10        25     9      180.000000        6.902900         2
         9         8        10        25     9        0.000000        0.335500         3
         9         8        10        25     9      180.000000        0.646759         4
        10         5         4        18     9        0.000000        4.185102         1
        10         5         4        18     9      180.000000        0.811532         2
        10         5         4        18     9        0.000000        0.107563         3
        10         5         4        18     9      180.000000        0.042115         4
        10         5         4        19     9        0.000000        4.185105         1
        10         5         4        19     9      180.000000        0.811532         2
        10         5         4        19     9        0.000000        0.107563         3
        10         5         4        19     9      180.000000        0.042115         4
        10         5         6        20     9        0.000000        9.432778         1
        10         5         6        20     9      180.000000       10.074562         2
        10         5         6        20     9        0.000000        0.176571         3
        10         5         6        20     9      180.000000        0.722355         4
        10         8         7        21     9        0.000000        8.690782         1
        10         8         7        21     9      180.000000       12.910457         2
        10         8         7        21     9        0.000000        0.171102         3
        10         8         7        21     9      180.000000        0.624079         4
        10         8         9        22     9        0.000000        3.696445         1
        10         8         9        22     9      180.000000        1.941045         2
        10         8         9        22     9        0.000000        0.217268         3
        10         8         9        22     9      180.000000        0.032796         4
        10         8         9        23     9        0.000000        3.696451         1
        10         8         9        23     9      180.000000        1.941047         2
        10         8         9        23     9        0.000000        0.217268         3
        10         8         9        23     9      180.000000        0.032796         4
        10         8         9        24     9        0.000000        3.696453         1
        10         8         9        24     9      180.000000        1.941046         2
        10         8         9        24     9        0.000000        0.217268         3
        10         8         9        24     9      180.000000        0.032796         4
        11         1         2        14     9        0.000000       -1.166070         1
        11         1         2        14     9      180.000000        5.220234         2
        11         1         2        14     9        0.000000        0.774838         3
        11         1         2        14     9      180.000000       -0.096605         4
        11         1         2        15     9        0.000000       -1.166067         1
        11         1         2        15     9      180.000000        5.220232         2
        11         1         2        15     9        0.000000        0.774838         3
        11         1         2        15     9      180.000000       -0.096606         4
        12         1         2        14     9        0.000000       -1.166067         1
        12         1         2        14     9      180.000000        5.220232         2
        12         1         2        14     9        0.000000        0.774838         3
        12         1         2        14     9      180.000000       -0.096606         4
        12         1         2        15     9        0.000000       -1.166067         1
        12         1         2        15     9      180.000000        5.220232         2
        12         1         2        15     9        0.000000        0.774838         3
        12         1         2        15     9      180.000000       -0.096606         4
        13         1         2        14     9        0.000000       -1.166067         1
        13         1         2        14     9      180.000000        5.220233         2
        13         1         2        14     9        0.000000        0.774838         3
        13         1         2        14     9      180.000000       -0.096605         4
        13         1         2        15     9        0.000000       -1.166067         1
        13         1         2        15     9      180.000000        5.220233         2
        13         1         2        15     9        0.000000        0.774838         3
        13         1         2        15     9      180.000000       -0.096605         4
        14         2         3        16     9        0.000000       -1.005128         1
        14         2         3        16     9      180.000000        4.616160         2
        14         2         3        16     9        0.000000        0.746284         3
        14         2         3        16     9      180.000000       -0.151385         4
        14         2         3        17     9        0.000000       -1.005124         1
        14         2         3        17     9      180.000000        4.616158         2
        14         2         3        17     9        0.000000        0.746284         3
        14         2         3        17     9      180.000000       -0.151385         4
        15         2         3        16     9        0.000000       -1.005124         1
        15         2         3        16     9      180.000000        4.616158         2
        15         2         3        16     9        0.000000        0.746284         3
        15         2         3        16     9      180.000000       -0.151385         4
        15         2         3        17     9        0.000000       -1.005124         1
        15         2         3        17     9      180.000000        4.616158         2
        15         2         3        17     9        0.000000        0.746284         3
        15         2         3        17     9      180.000000       -0.151385         4
        16         3         4        18     9        0.000000       -0.882152         1
        16         3         4        18     9      180.000000        4.596198         2
        16         3         4        18     9        0.000000        0.753571         3
        16         3         4        18     9      180.000000       -0.191953         4
        16         3         4        19     9        0.000000       -0.882153         1
        16         3         4        19     9      180.000000        4.596199         2
        16         3         4        19     9        0.000000        0.753571         3
        16         3         4        19     9      180.000000       -0.191953         4
        17         3         4        18     9        0.000000       -0.882152         1
        17         3         4        18     9      180.000000        4.596198         2
        17         3         4        18     9        0.000000        0.753571         3
        17         3         4        18     9      180.000000       -0.191953         4
        17         3         4        19     9        0.000000       -0.882153         1
        17         3         4        19     9      180.000000        4.596199         2
        17         3         4        19     9        0.000000        0.753571         3
        17         3         4        19     9      180.000000       -0.191953         4
        20         6         7        21     9        0.000000       18.036138         1
        20         6         7        21     9      180.000000       11.494708         2
        20         6         7        21     9        0.000000       -0.996076         3
        20         6         7        21     9      180.000000        0.990190         4

[ dihedrals ] ; impropers
;       ai        aj        ak        al funct           phase               k        pn
        10         5         8        25     4      180.000000        0.729007         2
        10         8        25         5     4      180.000000        0.729007         2
        10        25         5         8     4      180.000000        0.729007         2

[ pairs ]
;       ai        aj funct
         1         4     1
         1        16     1
         1        17     1
         2         5     1
         2        18     1
         2        19     1
         3         6     1
         3        10     1
         3        11     1
         3        12     1
         3        13     1
         4         7     1
         4         8     1
         4        14     1
         4        15     1
         4        20     1
         4        25     1
         5         9     1
         5        16     1
         5        17     1
         5        21     1
         6         9     1
         6        18     1
         6        19     1
         6        25     1
         7        22     1
         7        23     1
         7        24     1
         7        25     1
         8        20     1
         9        21     1
         9        25     1
        10        18     1
        10        19     1
        10        20     1
        10        21     1
        10        22     1
        10        23     1
        10        24     1
        11        14     1
        11        15     1
        12        14     1
        12        15     1
        13        14     1
        13        15     1
        14        16     1
        14        17     1
        15        16     1
        15        17     1
        16        18     1
        16        19     1
        17        18     1
        17        19     1
        20        21     1
