; ITP file created by ByteFF-ML, 2026-09-15 21:28:11.212047

[ moleculetype ]
;name             nrexcl
 EMIM                  3

[ atoms ]
;       nr            type      resi   res      atom      cgnr      charge          mass ; qtot
         1            c0bf         1   UNL        c0         1    -0.15007       12.0110 ; qtot   -0.150
         2            c1bf         1   UNL        c1         2     0.10152       12.0110 ; qtot   -0.049
         3            n2bf         1   UNL        n2         3    -0.19044       14.0070 ; qtot   -0.239
         4            c3bf         1   UNL        c3         4    -0.15846       12.0110 ; qtot   -0.397
         5            c4bf         1   UNL        c4         5    -0.10728       12.0110 ; qtot   -0.505
         6            n5bf         1   UNL        n5         6     0.22434       14.0070 ; qtot   -0.280
         7            c6bf         1   UNL        c6         7    -0.09570       12.0110 ; qtot   -0.376
         8            c7bf         1   UNL        c7         8     0.15540       12.0110 ; qtot   -0.221
         9            h8bf         1   UNL        h8         9     0.06333        1.0080 ; qtot   -0.157
        10            h9bf         1   UNL        h9        10     0.06333        1.0080 ; qtot   -0.094
        11           h10bf         1   UNL       h10        11     0.06333        1.0080 ; qtot   -0.031
        12           h11bf         1   UNL       h11        12     0.05822        1.0080 ; qtot    0.028
        13           h12bf         1   UNL       h12        13     0.05822        1.0080 ; qtot    0.086
        14           h13bf         1   UNL       h13        14     0.19942        1.0080 ; qtot    0.285
        15           h14bf         1   UNL       h14        15     0.20419        1.0080 ; qtot    0.489
        16           h15bf         1   UNL       h15        16     0.11242        1.0080 ; qtot    0.602
        17           h16bf         1   UNL       h16        17     0.11242        1.0080 ; qtot    0.714
        18           h17bf         1   UNL       h17        18     0.11242        1.0080 ; qtot    0.827
        19           h18bf         1   UNL       h18        19     0.17339        1.0080 ; qtot    1.000

[ bonds ]
;       ai        aj funct               r               k
         1         2     1        0.151736   192694.893774
         1         9     1        0.109546   304405.127295
         1        10     1        0.109546   304405.127295
         1        11     1        0.109546   304405.101758
         2         3     1        0.147590   181283.853516
         2        12     1        0.109051   308593.775049
         2        13     1        0.109051   308593.749512
         3         4     1        0.138884   252783.060937
         3         8     1        0.134020   361360.082666
         4         5     1        0.136373   401704.399707
         4        14     1        0.107847   346551.189551
         5         6     1        0.139323   253571.953320
         5        15     1        0.108021   350128.504443
         6         7     1        0.149385   184854.605371
         6         8     1        0.134364   357044.592090
         7        16     1        0.108975   315876.269141
         7        17     1        0.108975   315876.269141
         7        18     1        0.108975   315876.269141
         8        19     1        0.108378   345428.476074

[ angles ]
;       ai        aj        ak funct           theta             cth
         1         2         3     1      112.115089      639.509742
         1         2        12     1      111.371017      477.844262
         1         2        13     1      111.371040      477.844262
         2         1         9     1      110.654083      506.671955
         2         1        10     1      110.654083      506.671955
         2         1        11     1      110.654076      506.672019
         2         3         4     1      125.846649      525.384528
         2         3         8     1      126.578362      469.574420
         3         2        12     1      107.389572      529.715174
         3         2        13     1      107.389549      529.715302
         3         4         5     1      105.624825      315.007841
         3         4        14     1      122.454323      426.531558
         3         8         6     1      107.072510      227.688676
         3         8        19     1      126.175995      382.172003
         4         3         8     1      107.082344      225.210714
         4         5         6     1      106.576050      298.772592
         4         5        15     1      132.320999      319.479932
         5         4        14     1      130.890335      319.330284
         5         6         7     1      125.602562      521.118713
         5         6         8     1      106.396164      239.221426
         6         5        15     1      123.725708      429.183715
         6         7        16     1      109.593513      508.058301
         6         7        17     1      109.593513      508.058301
         6         7        18     1      109.593521      508.058269
         6         8        19     1      125.465027      376.314141
         7         6         8     1      125.905533      446.303761
         9         1        10     1      108.585037      362.818066
         9         1        11     1      108.585052      362.818003
        10         1        11     1      108.585052      362.818003
        12         2        13     1      108.141335      343.921021
        16         7        17     1      109.857880      350.560445
        16         7        18     1      109.857857      350.560477
        17         7        18     1      109.857857      350.560477

[ dihedrals ] ; propers for gromacs 4.5 or higher, use funct 9
;       ai        aj        ak        al funct           phase               k        pn
         1         2         3         4     9        0.000000        2.469713         1
         1         2         3         4     9      180.000000        0.992339         2
         1         2         3         4     9        0.000000        0.381078         3
         1         2         3         4     9      180.000000        0.076657         4
         1         2         3         8     9        0.000000        3.622499         1
         1         2         3         8     9      180.000000        0.523385         2
         1         2         3         8     9        0.000000       -0.095792         3
         1         2         3         8     9      180.000000        0.094429         4
         2         3         4         5     9        0.000000       -9.524877         1
         2         3         4         5     9      180.000000       15.207085         2
         2         3         4         5     9        0.000000        0.090175         3
         2         3         4         5     9      180.000000       -1.405042         4
         2         3         4        14     9        0.000000       12.691947         1
         2         3         4        14     9      180.000000        3.895943         2
         2         3         4        14     9        0.000000        0.340747         3
         2         3         4        14     9      180.000000        0.664301         4
         2         3         8         6     9        0.000000      -10.897775         1
         2         3         8         6     9      180.000000       19.098823         2
         2         3         8         6     9        0.000000        0.022148         3
         2         3         8         6     9      180.000000       -1.023979         4
         2         3         8        19     9        0.000000       13.645466         1
         2         3         8        19     9      180.000000        6.728143         2
         2         3         8        19     9        0.000000        0.364679         3
         2         3         8        19     9      180.000000        0.530530         4
         3         2         1         9     9        0.000000        0.764897         1
         3         2         1         9     9      180.000000        3.868327         2
         3         2         1         9     9        0.000000        0.716483         3
         3         2         1         9     9      180.000000       -0.012443         4
         3         2         1        10     9        0.000000        0.764897         1
         3         2         1        10     9      180.000000        3.868327         2
         3         2         1        10     9        0.000000        0.716483         3
         3         2         1        10     9      180.000000       -0.012443         4
         3         2         1        11     9        0.000000        0.764896         1
         3         2         1        11     9      180.000000        3.868327         2
         3         2         1        11     9        0.000000        0.716483         3
         3         2         1        11     9      180.000000       -0.012443         4
         3         4         5         6     9        0.000000       -6.333097         1
         3         4         5         6     9      180.000000       52.257788         2
         3         4         5         6     9        0.000000      -11.627984         3
         3         4         5         6     9      180.000000       -8.221028         4
         3         4         5        15     9        0.000000        6.088664         1
         3         4         5        15     9      180.000000       16.302253         2
         3         4         5        15     9        0.000000       -0.168461         3
         3         4         5        15     9      180.000000        0.215495         4
         3         8         6         5     9        0.000000       -9.761381         1
         3         8         6         5     9      180.000000       48.402327         2
         3         8         6         5     9        0.000000      -10.328503         3
         3         8         6         5     9      180.000000       -6.674083         4
         3         8         6         7     9        0.000000       -7.991865         1
         3         8         6         7     9      180.000000       18.003054         2
         3         8         6         7     9        0.000000       -0.016844         3
         3         8         6         7     9      180.000000       -1.113430         4
         4         3         2        12     9        0.000000        2.317917         1
         4         3         2        12     9      180.000000        1.482877         2
         4         3         2        12     9        0.000000        0.495238         3
         4         3         2        12     9      180.000000        0.032941         4
         4         3         2        13     9        0.000000        2.317913         1
         4         3         2        13     9      180.000000        1.482876         2
         4         3         2        13     9        0.000000        0.495238         3
         4         3         2        13     9      180.000000        0.032942         4
         4         3         8         6     9        0.000000       -6.301918         1
         4         3         8         6     9      180.000000       48.800494         2
         4         3         8         6     9        0.000000      -10.589602         3
         4         3         8         6     9      180.000000       -6.084117         4
         4         3         8        19     9        0.000000        9.579392         1
         4         3         8        19     9      180.000000       13.587215         2
         4         3         8        19     9        0.000000        0.410480         3
         4         3         8        19     9      180.000000        0.326598         4
         4         5         6         7     9        0.000000       -5.102212         1
         4         5         6         7     9      180.000000       16.224443         2
         4         5         6         7     9        0.000000       -0.524158         3
         4         5         6         7     9      180.000000       -1.270911         4
         4         5         6         8     9        0.000000      -34.174450         1
         4         5         6         8     9      180.000000       43.600057         2
         4         5         6         8     9        0.000000       -6.719378         3
         4         5         6         8     9      180.000000       -7.183794         4
         5         4         3         8     9        0.000000      -37.339643         1
         5         4         3         8     9      180.000000       42.171958         2
         5         4         3         8     9        0.000000       -6.027303         3
         5         4         3         8     9      180.000000       -6.747392         4
         5         6         7        16     9        0.000000        2.576649         1
         5         6         7        16     9      180.000000        2.180572         2
         5         6         7        16     9        0.000000        0.493376         3
         5         6         7        16     9      180.000000        0.070520         4
         5         6         7        17     9        0.000000        2.576649         1
         5         6         7        17     9      180.000000        2.180572         2
         5         6         7        17     9        0.000000        0.493376         3
         5         6         7        17     9      180.000000        0.070520         4
         5         6         7        18     9        0.000000        2.576657         1
         5         6         7        18     9      180.000000        2.180571         2
         5         6         7        18     9        0.000000        0.493377         3
         5         6         7        18     9      180.000000        0.070520         4
         5         6         8        19     9        0.000000        6.783436         1
         5         6         8        19     9      180.000000       14.797982         2
         5         6         8        19     9        0.000000        0.174991         3
         5         6         8        19     9      180.000000        0.494969         4
         6         5         4        14     9        0.000000        7.873733         1
         6         5         4        14     9      180.000000       16.051670         2
         6         5         4        14     9        0.000000       -0.163578         3
         6         5         4        14     9      180.000000        0.383904         4
         7         6         5        15     9        0.000000       10.750222         1
         7         6         5        15     9      180.000000        4.203834         2
         7         6         5        15     9        0.000000        0.232778         3
         7         6         5        15     9      180.000000        0.747285         4
         7         6         8        19     9        0.000000        9.936678         1
         7         6         8        19     9      180.000000        6.909158         2
         7         6         8        19     9        0.000000        0.333667         3
         7         6         8        19     9      180.000000        0.645733         4
         8         3         2        12     9        0.000000        3.843917         1
         8         3         2        12     9      180.000000        0.890510         2
         8         3         2        12     9        0.000000        0.125769         3
         8         3         2        12     9      180.000000        0.033928         4
         8         3         2        13     9        0.000000        3.843914         1
         8         3         2        13     9      180.000000        0.890511         2
         8         3         2        13     9        0.000000        0.125769         3
         8         3         2        13     9      180.000000        0.033928         4
         8         3         4        14     9        0.000000        9.273242         1
         8         3         4        14     9      180.000000        9.924026         2
         8         3         4        14     9        0.000000        0.196709         3
         8         3         4        14     9      180.000000        0.701676         4
         8         6         5        15     9        0.000000        8.690187         1
         8         6         5        15     9      180.000000       12.903078         2
         8         6         5        15     9        0.000000        0.170080         3
         8         6         5        15     9      180.000000        0.624785         4
         8         6         7        16     9        0.000000        3.701627         1
         8         6         7        16     9      180.000000        1.941781         2
         8         6         7        16     9        0.000000        0.215939         3
         8         6         7        16     9      180.000000        0.032102         4
         8         6         7        17     9        0.000000        3.701627         1
         8         6         7        17     9      180.000000        1.941781         2
         8         6         7        17     9        0.000000        0.215939         3
         8         6         7        17     9      180.000000        0.032102         4
         8         6         7        18     9        0.000000        3.701632         1
         8         6         7        18     9      180.000000        1.941781         2
         8         6         7        18     9        0.000000        0.215939         3
         8         6         7        18     9      180.000000        0.032102         4
         9         1         2        12     9        0.000000       -0.417972         1
         9         1         2        12     9      180.000000        4.831337         2
         9         1         2        12     9        0.000000        0.759438         3
         9         1         2        12     9      180.000000       -0.089062         4
         9         1         2        13     9        0.000000       -0.417973         1
         9         1         2        13     9      180.000000        4.831337         2
         9         1         2        13     9        0.000000        0.759439         3
         9         1         2        13     9      180.000000       -0.089062         4
        10         1         2        12     9        0.000000       -0.417972         1
        10         1         2        12     9      180.000000        4.831337         2
        10         1         2        12     9        0.000000        0.759438         3
        10         1         2        12     9      180.000000       -0.089062         4
        10         1         2        13     9        0.000000       -0.417973         1
        10         1         2        13     9      180.000000        4.831337         2
        10         1         2        13     9        0.000000        0.759439         3
        10         1         2        13     9      180.000000       -0.089062         4
        11         1         2        12     9        0.000000       -0.417971         1
        11         1         2        12     9      180.000000        4.831338         2
        11         1         2        12     9        0.000000        0.759438         3
        11         1         2        12     9      180.000000       -0.089063         4
        11         1         2        13     9        0.000000       -0.417972         1
        11         1         2        13     9      180.000000        4.831338         2
        11         1         2        13     9        0.000000        0.759438         3
        11         1         2        13     9      180.000000       -0.089062         4
        14         4         5        15     9        0.000000       18.032711         1
        14         4         5        15     9      180.000000       11.490375         2
        14         4         5        15     9        0.000000       -1.001507         3
        14         4         5        15     9      180.000000        0.990123         4

[ dihedrals ] ; impropers
;       ai        aj        ak        al funct           phase               k        pn
         8         3         6        19     4      180.000000        0.763825         2
         8         6        19         3     4      180.000000        0.763825         2
         8        19         3         6     4      180.000000        0.763825         2

[ pairs ]
;       ai        aj funct
         1         4     1
         1         8     1
         2         5     1
         2         6     1
         2        14     1
         2        19     1
         3         7     1
         3         9     1
         3        10     1
         3        11     1
         3        15     1
         4         7     1
         4        12     1
         4        13     1
         4        19     1
         5        16     1
         5        17     1
         5        18     1
         5        19     1
         6        14     1
         7        15     1
         7        19     1
         8        12     1
         8        13     1
         8        14     1
         8        15     1
         8        16     1
         8        17     1
         8        18     1
         9        12     1
         9        13     1
        10        12     1
        10        13     1
        11        12     1
        11        13     1
        14        15     1
