A Gromacs structure file written by ASE
 1156
    1TFSI     O    1   0.434   1.452   1.982
    1TFSI     S    2   0.569   1.480   1.933
    1TFSI     O    3   0.657   1.535   2.036
    1TFSI     N    4   0.567   1.557   1.795
    1TFSI     S    5   0.710   1.606   1.744
    1TFSI     O    6   0.705   1.663   1.609
    1TFSI     O    7   0.820   1.510   1.761
    1TFSI     C    8   0.743   1.749   1.857
    1TFSI     F    9   0.629   1.799   1.914
    1TFSI     F   10   0.797   1.854   1.788
    1TFSI     F   11   0.832   1.722   1.957
    1TFSI     C   12   0.638   1.315   1.881
    1TFSI     F   13   0.626   1.293   1.748
    1TFSI     F   14   0.570   1.212   1.941
    1TFSI     F   15   0.769   1.297   1.915
    2TFSI     O   16   2.291   1.271   0.640
    2TFSI     S   17   2.207   1.171   0.705
    2TFSI     O   18   2.230   1.162   0.849
    2TFSI     N   19   2.206   1.033   0.626
    2TFSI     S   20   2.130   0.915   0.700
    2TFSI     O   21   2.119   0.796   0.617
    2TFSI     O   22   2.004   0.951   0.766
    2TFSI     C   23   2.252   0.871   0.833
    2TFSI     F   24   2.378   0.914   0.806
    2TFSI     F   25   2.262   0.735   0.847
    2TFSI     F   26   2.217   0.917   0.957
    2TFSI     C   27   2.033   1.229   0.679
    2TFSI     F   28   1.972   1.169   0.574
    2TFSI     F   29   2.029   1.363   0.651
    2TFSI     F   30   1.952   1.213   0.789
    3TFSI     O   31   0.796   0.522   2.503
    3TFSI     S   32   0.864   0.652   2.496
    3TFSI     O   33   0.856   0.726   2.621
    3TFSI     N   34   0.825   0.732   2.364
    3TFSI     S   35   0.882   0.880   2.359
    3TFSI     O   36   0.858   0.944   2.229
    3TFSI     O   37   1.019   0.898   2.406
    3TFSI     C   38   0.770   0.967   2.479
    3TFSI     F   39   0.653   0.900   2.500
    3TFSI     F   40   0.733   1.089   2.430
    3TFSI     F   41   0.828   0.992   2.600
    3TFSI     C   42   1.042   0.612   2.464
    3TFSI     F   43   1.075   0.621   2.333
    3TFSI     F   44   1.071   0.483   2.500
    3TFSI     F   45   1.129   0.690   2.535
    4TFSI     O   46   2.282   1.805   0.968
    4TFSI     S   47   2.245   1.899   1.075
    4TFSI     O   48   2.334   1.890   1.190
    4TFSI     N   49   2.089   1.895   1.105
    4TFSI     S   50   2.045   1.980   1.231
    4TFSI     O   51   1.899   1.986   1.245
    4TFSI     O   52   2.109   2.111   1.245
    4TFSI     C   53   2.104   1.874   1.371
    4TFSI     F   54   2.124   1.744   1.334
    4TFSI     F   55   2.011   1.869   1.471
    4TFSI     F   56   2.218   1.919   1.431
    4TFSI     C   57   2.263   2.068   1.001
    4TFSI     F   58   2.146   2.119   0.956
    4TFSI     F   59   2.346   2.065   0.891
    4TFSI     F   60   2.319   2.159   1.086
    5TFSI     O   61   1.222   2.207   2.487
    5TFSI     S   62   1.297   2.295   2.397
    5TFSI     O   63   1.336   2.229   2.272
    5TFSI     N   64   1.412   2.373   2.473
    5TFSI     S   65   1.508   2.457   2.378
    5TFSI     O   66   1.603   2.540   2.454
    5TFSI     O   67   1.443   2.531   2.270
    5TFSI     C   68   1.611   2.323   2.301
    5TFSI     F   69   1.609   2.207   2.373
    5TFSI     F   70   1.743   2.360   2.295
    5TFSI     F   71   1.576   2.294   2.173
    5TFSI     C   72   1.181   2.433   2.355
    5TFSI     F   73   1.200   2.543   2.431
    5TFSI     F   74   1.050   2.396   2.377
    5TFSI     F   75   1.186   2.471   2.224
    6TFSI     O   76   1.497   0.541   0.664
    6TFSI     S   77   1.379   0.628   0.669
    6TFSI     O   78   1.385   0.737   0.572
    6TFSI     N   79   1.343   0.670   0.818
    6TFSI     S   80   1.227   0.778   0.829
    6TFSI     O   81   1.186   0.801   0.968
    6TFSI     O   82   1.113   0.759   0.739
    6TFSI     C   83   1.315   0.932   0.777
    6TFSI     F   84   1.451   0.922   0.788
    6TFSI     F   85   1.280   1.038   0.858
    6TFSI     F   86   1.285   0.973   0.651
    6TFSI     C   87   1.236   0.519   0.626
    6TFSI     F   88   1.170   0.473   0.735
    6TFSI     F   89   1.278   0.407   0.558
    6TFSI     F   90   1.145   0.579   0.543
    7TFSI     O   91   0.475   2.271   0.091
    7TFSI     S   92   0.503   2.301   0.232
    7TFSI     O   93   0.397   2.255   0.321
    7TFSI     N   94   0.553   2.450   0.253
    7TFSI     S   95   0.568   2.493   0.404
    7TFSI     O   96   0.629   2.626   0.418
    7TFSI     O   97   0.628   2.394   0.494
    7TFSI     C   98   0.391   2.515   0.456
    7TFSI     F   99   0.307   2.532   0.350
    7TFSI     F  100   0.376   2.627   0.533
    7TFSI     F  101   0.343   2.413   0.532
    7TFSI     C  102   0.657   2.206   0.272
    7TFSI     F  103   0.769   2.281   0.265
    7TFSI     F  104   0.676   2.103   0.183
    7TFSI     F  105   0.654   2.146   0.395
    8TFSI     O  106   0.786   0.258   1.735
    8TFSI     S  107   0.889   0.353   1.780
    8TFSI     O  108   1.024   0.302   1.759
    8TFSI     N  109   0.857   0.412   1.924
    8TFSI     S  110   0.973   0.501   1.985
    8TFSI     O  111   0.933   0.566   2.110
    8TFSI     O  112   1.039   0.593   1.892
    8TFSI     C  113   1.098   0.373   2.033
    8TFSI     F  114   1.043   0.248   2.047
    8TFSI     F  115   1.152   0.401   2.156
    8TFSI     F  116   1.204   0.364   1.949
    8TFSI     C  117   0.867   0.503   1.673
    8TFSI     F  118   0.794   0.600   1.733
    8TFSI     F  119   0.799   0.472   1.558
    8TFSI     F  120   0.985   0.558   1.632
    9TFSI     O  121   1.830   1.440   1.520
    9TFSI     S  122   1.740   1.505   1.424
    9TFSI     O  123   1.802   1.522   1.292
    9TFSI     N  124   1.670   1.633   1.485
    9TFSI     S  125   1.585   1.718   1.381
    9TFSI     O  126   1.509   1.826   1.445
    9TFSI     O  127   1.504   1.641   1.286
    9TFSI     C  128   1.719   1.802   1.284
    9TFSI     F  129   1.838   1.806   1.351
    9TFSI     F  130   1.686   1.933   1.260
    9TFSI     F  131   1.741   1.748   1.161
    9TFSI     C  132   1.596   1.390   1.405
    9TFSI     F  133   1.490   1.425   1.482
    9TFSI     F  134   1.629   1.262   1.445
    9TFSI     F  135   1.552   1.377   1.276
   10TFSI     O  136   0.552   1.742   0.598
   10TFSI     S  137   0.475   1.860   0.641
   10TFSI     O  138   0.332   1.833   0.651
   10TFSI     N  139   0.516   1.990   0.560
   10TFSI     S  140   0.426   2.116   0.589
   10TFSI     O  141   0.477   2.238   0.525
   10TFSI     O  142   0.389   2.138   0.729
   10TFSI     C  143   0.270   2.074   0.497
   10TFSI     F  144   0.291   1.979   0.401
   10TFSI     F  145   0.221   2.183   0.430
   10TFSI     F  146   0.168   2.032   0.577
   10TFSI     C  147   0.539   1.900   0.810
   10TFSI     F  148   0.632   1.998   0.809
   10TFSI     F  149   0.600   1.792   0.867
   10TFSI     F  150   0.441   1.936   0.898
   11TFSI     O  151   0.517   2.410   0.791
   11TFSI     S  152   0.662   2.414   0.815
   11TFSI     O  153   0.709   2.548   0.849
   11TFSI     N  154   0.743   2.338   0.703
   11TFSI     S  155   0.900   2.353   0.713
   11TFSI     O  156   0.972   2.269   0.617
   11TFSI     O  157   0.957   2.345   0.848
   11TFSI     C  158   0.925   2.527   0.653
   11TFSI     F  159   0.820   2.573   0.580
   11TFSI     F  160   1.033   2.535   0.570
   11TFSI     F  161   0.950   2.617   0.753
   11TFSI     C  162   0.690   2.304   0.962
   11TFSI     F  163   0.730   2.179   0.927
   11TFSI     F  164   0.575   2.287   1.034
   11TFSI     F  165   0.781   2.354   1.051
   12TFSI     O  166   1.049   0.845   1.865
   12TFSI     S  167   1.076   0.962   1.948
   12TFSI     O  168   1.044   0.939   2.089
   12TFSI     N  169   1.019   1.095   1.884
   12TFSI     S  170   1.030   1.223   1.978
   12TFSI     O  171   0.991   1.346   1.909
   12TFSI     O  172   1.155   1.237   2.053
   12TFSI     C  173   0.895   1.190   2.101
   12TFSI     F  174   0.803   1.101   2.056
   12TFSI     F  175   0.825   1.305   2.128
   12TFSI     F  176   0.940   1.147   2.222
   12TFSI     C  177   1.259   0.990   1.935
   12TFSI     F  178   1.291   1.085   1.844
   12TFSI     F  179   1.324   0.877   1.894
   12TFSI     F  180   1.318   1.024   2.054
   13TFSI     O  181   0.441   1.637   1.153
   13TFSI     S  182   0.340   1.597   1.055
   13TFSI     O  183   0.373   1.471   0.989
   13TFSI     N  184   0.297   1.717   0.961
   13TFSI     S  185   0.200   1.675   0.842
   13TFSI     O  186   0.151   1.791   0.767
   13TFSI     O  187   0.094   1.580   0.876
   13TFSI     C  188   0.317   1.588   0.727
   13TFSI     F  189   0.448   1.622   0.749
   13TFSI     F  190   0.293   1.624   0.597
   13TFSI     F  191   0.307   1.453   0.729
   13TFSI     C  192   0.185   1.571   1.153
   13TFSI     F  193   0.102   1.678   1.151
   13TFSI     F  194   0.213   1.551   1.286
   13TFSI     F  195   0.113   1.461   1.115
   14TFSI     O  196   0.241   1.007   0.973
   14TFSI     S  197   0.338   0.904   0.933
   14TFSI     O  198   0.292   0.827   0.818
   14TFSI     N  199   0.391   0.820   1.057
   14TFSI     S  200   0.482   0.696   1.018
   14TFSI     O  201   0.541   0.632   1.135
   14TFSI     O  202   0.579   0.719   0.911
   14TFSI     C  203   0.356   0.576   0.954
   14TFSI     F  204   0.230   0.604   0.997
   14TFSI     F  205   0.382   0.449   0.999
   14TFSI     F  206   0.354   0.566   0.818
   14TFSI     C  207   0.491   0.997   0.883
   14TFSI     F  208   0.583   1.002   0.982
   14TFSI     F  209   0.462   1.127   0.854
   14TFSI     F  210   0.551   0.947   0.772
   15TFSI     O  211   0.796   2.110   2.488
   15TFSI     S  212   0.691   2.180   2.413
   15TFSI     O  213   0.734   2.219   2.279
   15TFSI     N  214   0.621   2.293   2.500
   15TFSI     S  215   0.518   2.383   2.420
   15TFSI     O  216   0.445   2.475   2.507
   15TFSI     O  217   0.431   2.313   2.325
   15TFSI     C  218   0.632   2.490   2.321
   15TFSI     F  219   0.759   2.495   2.373
   15TFSI     F  220   0.589   2.620   2.319
   15TFSI     F  221   0.642   2.455   2.190
   15TFSI     C  222   0.554   2.057   2.396
   15TFSI     F  223   0.456   2.072   2.489
   15TFSI     F  224   0.600   1.928   2.413
   15TFSI     F  225   0.494   2.058   2.273
   16TFSI     O  226   1.896   1.302   0.411
   16TFSI     S  227   1.767   1.367   0.385
   16TFSI     O  228   1.735   1.472   0.481
   16TFSI     N  229   1.652   1.260   0.357
   16TFSI     S  230   1.507   1.323   0.344
   16TFSI     O  231   1.407   1.223   0.303
   16TFSI     O  232   1.497   1.448   0.268
   16TFSI     C  233   1.467   1.362   0.521
   16TFSI     F  234   1.544   1.291   0.609
   16TFSI     F  235   1.338   1.328   0.551
   16TFSI     F  236   1.478   1.494   0.552
   16TFSI     C  237   1.785   1.445   0.218
   16TFSI     F  238   1.734   1.369   0.118
   16TFSI     F  239   1.917   1.463   0.186
   16TFSI     F  240   1.728   1.569   0.209
   17TFSI     O  241   2.202   1.791   0.285
   17TFSI     S  242   2.058   1.808   0.308
   17TFSI     O  243   1.976   1.750   0.202
   17TFSI     N  244   2.021   1.957   0.351
   17TFSI     S  245   1.866   1.986   0.361
   17TFSI     O  246   1.837   2.119   0.416
   17TFSI     O  247   1.784   1.881   0.423
   17TFSI     C  248   1.818   1.995   0.182
   17TFSI     F  249   1.924   2.019   0.100
   17TFSI     F  250   1.731   2.099   0.160
   17TFSI     F  251   1.753   1.884   0.136
   17TFSI     C  252   2.022   1.715   0.465
   17TFSI     F  253   2.019   1.796   0.574
   17TFSI     F  254   2.120   1.623   0.491
   17TFSI     F  255   1.905   1.644   0.461
   18FSI      O  256   1.578   0.757   0.859
   18FSI      S  257   1.670   0.650   0.891
   18FSI      O  258   1.647   0.522   0.824
   18FSI      F  259   1.620   0.613   1.039
   18FSI      N  260   1.818   0.689   0.923
   18FSI      S  261   1.900   0.717   0.791
   18FSI      O  262   1.848   0.813   0.696
   18FSI      O  263   2.045   0.727   0.812
   18FSI      F  264   1.891   0.580   0.710
   19FSI      O  265   2.624   0.940   0.543
   19FSI      S  266   2.495   0.890   0.497
   19FSI      O  267   2.383   0.982   0.506
   19FSI      F  268   2.460   0.789   0.616
   19FSI      N  269   2.497   0.789   0.377
   19FSI      S  270   2.515   0.863   0.240
   19FSI      O  271   2.628   0.953   0.223
   19FSI      O  272   2.489   0.778   0.123
   19FSI      F  273   2.391   0.963   0.232
   20FSI      O  274   1.338   0.342   1.022
   20FSI      S  275   1.255   0.226   0.993
   20FSI      O  276   1.220   0.142   1.106
   20FSI      F  277   1.362   0.131   0.919
   20FSI      N  278   1.150   0.240   0.878
   20FSI      S  279   1.022   0.318   0.927
   20FSI      O  280   1.038   0.449   0.988
   20FSI      O  281   0.909   0.310   0.833
   20FSI      F  282   0.967   0.230   1.048
   21FSI      O  283   0.965   2.139   1.255
   21FSI      S  284   0.926   2.022   1.333
   21FSI      O  285   0.784   1.993   1.339
   21FSI      F  286   0.949   2.080   1.482
   21FSI      N  287   1.025   1.901   1.337
   21FSI      S  288   1.015   1.814   1.206
   21FSI      O  289   1.029   1.880   1.077
   21FSI      O  290   1.084   1.685   1.216
   21FSI      F  291   0.862   1.767   1.204
   22FSI      O  292   1.869   0.541   0.352
   22FSI      S  293   1.776   0.433   0.381
   22FSI      O  294   1.698   0.383   0.268
   22FSI      F  295   1.661   0.516   0.459
   22FSI      N  296   1.816   0.332   0.493
   22FSI      S  297   1.918   0.225   0.440
   22FSI      O  298   2.041   0.272   0.376
   22FSI      O  299   1.938   0.112   0.531
   22FSI      F  300   1.842   0.154   0.319
   23FSI      O  301   2.112   1.525   1.251
   23FSI      S  302   2.042   1.402   1.215
   23FSI      O  303   1.943   1.354   1.311
   23FSI      F  304   2.159   1.294   1.239
   23FSI      N  305   2.014   1.377   1.063
   23FSI      S  306   1.891   1.460   1.013
   23FSI      O  307   1.889   1.604   1.035
   23FSI      O  308   1.843   1.420   0.880
   23FSI      F  309   1.770   1.410   1.104
   24FSI      O  310   0.902   2.082   0.254
   24FSI      S  311   0.938   1.965   0.332
   24FSI      O  312   0.927   1.978   0.477
   24FSI      F  313   1.098   1.969   0.316
   24FSI      N  314   0.909   1.825   0.270
   24FSI      S  315   0.757   1.786   0.285
   24FSI      O  316   0.656   1.878   0.237
   24FSI      O  317   0.730   1.645   0.254
   24FSI      F  318   0.733   1.787   0.443
   25FSI      O  319   0.852   2.407   1.994
   25FSI      S  320   0.836   2.281   1.923
   25FSI      O  321   0.702   2.250   1.875
   25FSI      F  322   0.846   2.177   2.046
   25FSI      N  323   0.958   2.231   1.837
   25FSI      S  324   0.965   2.306   1.699
   25FSI      O  325   0.966   2.451   1.698
   25FSI      O  326   1.058   2.245   1.604
   25FSI      F  327   0.825   2.272   1.630
   26FSI      O  328   2.371   2.202   0.721
   26FSI      S  329   2.247   2.149   0.666
   26FSI      O  330   2.243   2.135   0.521
   26FSI      F  331   2.151   2.276   0.685
   26FSI      N  332   2.169   2.044   0.751
   26FSI      S  333   2.233   1.901   0.739
   26FSI      O  334   2.375   1.885   0.769
   26FSI      O  335   2.149   1.794   0.794
   26FSI      F  336   2.226   1.868   0.583
   27FSI      O  337   1.200   1.945   1.999
   27FSI      S  338   1.074   1.877   2.020
   27FSI      O  339   0.976   1.887   1.911
   27FSI      F  340   1.005   1.975   2.127
   27FSI      N  341   1.076   1.745   2.103
   27FSI      S  342   1.125   1.623   2.017
   27FSI      O  343   1.252   1.633   1.947
   27FSI      O  344   1.103   1.493   2.080
   27FSI      F  345   1.020   1.616   1.897
   28FSI      O  346   2.245   2.386   1.910
   28FSI      S  347   2.385   2.347   1.900
   28FSI      O  348   2.414   2.232   1.814
   28FSI      F  349   2.405   2.279   2.045
   28FSI      N  350   2.492   2.460   1.909
   28FSI      S  351   2.507   2.536   1.773
   28FSI      O  352   2.388   2.593   1.711
   28FSI      O  353   2.625   2.624   1.767
   28FSI      F  354   2.549   2.423   1.669
   29FSI      O  355   1.099   1.521   0.218
   29FSI      S  356   1.238   1.491   0.250
   29FSI      O  357   1.315   1.424   0.147
   29FSI      F  358   1.217   1.369   0.353
   29FSI      N  359   1.313   1.592   0.344
   29FSI      S  360   1.361   1.719   0.265
   29FSI      O  361   1.263   1.794   0.188
   29FSI      O  362   1.455   1.802   0.340
   29FSI      F  363   1.456   1.660   0.151
   30FSI      O  364   2.619   0.530   1.065
   30FSI      S  365   2.543   0.478   0.952
   30FSI      O  366   2.619   0.407   0.850
   30FSI      F  367   2.514   0.616   0.873
   30FSI      N  368   2.396   0.432   0.978
   30FSI      S  369   2.392   0.289   1.043
   30FSI      O  370   2.469   0.265   1.164
   30FSI      O  371   2.259   0.228   1.045
   30FSI      F  372   2.466   0.196   0.937
   31FSI      O  373   1.520   2.204   1.868
   31FSI      S  374   1.636   2.116   1.865
   31FSI      O  375   1.729   2.129   1.977
   31FSI      F  376   1.722   2.187   1.749
   31FSI      N  377   1.618   1.974   1.801
   31FSI      S  378   1.548   1.875   1.901
   31FSI      O  379   1.421   1.914   1.961
   31FSI      O  380   1.553   1.735   1.858
   31FSI      F  381   1.646   1.872   2.027
   32FSI      O  382   2.317   0.207   0.364
   32FSI      S  383   2.327   0.352   0.359
   32FSI      O  384   2.213   0.422   0.299
   32FSI      F  385   2.435   0.369   0.241
   32FSI      N  386   2.403   0.424   0.475
   32FSI      S  387   2.314   0.437   0.603
   32FSI      O  388   2.252   0.317   0.658
   32FSI      O  389   2.369   0.527   0.705
   32FSI      F  390   2.188   0.522   0.554
   33FSI      O  391   2.106   1.736   2.405
   33FSI      S  392   2.116   1.616   2.322
   33FSI      O  393   2.184   1.502   2.382
   33FSI      F  394   2.228   1.664   2.217
   33FSI      N  395   1.998   1.586   2.224
   33FSI      S  396   1.876   1.522   2.298
   33FSI      O  397   1.820   1.590   2.414
   33FSI      O  398   1.774   1.467   2.208
   33FSI      F  399   1.935   1.389   2.362
   34FSI      O  400   0.426   1.487   0.326
   34FSI      S  401   0.391   1.575   0.216
   34FSI      O  402   0.332   1.512   0.099
   34FSI      F  403   0.537   1.609   0.159
   34FSI      N  404   0.343   1.720   0.253
   34FSI      S  405   0.193   1.721   0.299
   34FSI      O  406   0.152   1.632   0.407
   34FSI      O  407   0.135   1.855   0.307
   34FSI      F  408   0.114   1.661   0.174
   35EMIM     C  409   2.526   1.770   0.510
   35EMIM     C  410   2.424   1.659   0.525
   35EMIM     N  411   2.472   1.535   0.463
   35EMIM     C  412   2.543   1.434   0.527
   35EMIM     C  413   2.569   1.338   0.433
   35EMIM     N  414   2.512   1.383   0.314
   35EMIM     C  415   2.516   1.313   0.186
   35EMIM     C  416   2.456   1.502   0.334
   35EMIM     H  417   2.488   1.862   0.556
   35EMIM     H  418   2.620   1.744   0.558
   35EMIM     H  419   2.546   1.791   0.405
   35EMIM     H  420   2.330   1.686   0.477
   35EMIM     H  421   2.404   1.639   0.631
   35EMIM     H  422   2.566   1.443   0.632
   35EMIM     H  423   2.620   1.243   0.434
   35EMIM     H  424   2.462   1.369   0.111
   35EMIM     H  425   2.620   1.300   0.155
   35EMIM     H  426   2.470   1.214   0.199
   35EMIM     H  427   2.404   1.562   0.260
   36EMIM     C  428   1.251   2.432   0.934
   36EMIM     C  429   1.268   2.513   0.807
   36EMIM     N  430   1.394   2.480   0.739
   36EMIM     C  431   1.411   2.384   0.640
   36EMIM     C  432   1.543   2.385   0.606
   36EMIM     N  433   1.603   2.483   0.684
   36EMIM     C  434   1.744   2.519   0.681
   36EMIM     C  435   1.512   2.538   0.764
   36EMIM     H  436   1.157   2.459   0.983
   36EMIM     H  437   1.250   2.325   0.912
   36EMIM     H  438   1.333   2.451   1.003
   36EMIM     H  439   1.268   2.620   0.829
   36EMIM     H  440   1.185   2.493   0.738
   36EMIM     H  441   1.326   2.326   0.607
   36EMIM     H  442   1.603   2.330   0.535
   36EMIM     H  443   1.763   2.601   0.751
   36EMIM     H  444   1.804   2.432   0.709
   36EMIM     H  445   1.771   2.551   0.580
   36EMIM     H  446   1.529   2.618   0.837
   37EMIM     C  447   1.583   2.538   0.183
   37EMIM     C  448   1.499   2.526   0.308
   37EMIM     N  449   1.389   2.430   0.289
   37EMIM     C  450   1.393   2.294   0.318
   37EMIM     C  451   1.271   2.243   0.284
   37EMIM     N  452   1.196   2.349   0.235
   37EMIM     C  453   1.058   2.340   0.186
   37EMIM     C  454   1.269   2.461   0.238
   37EMIM     H  455   1.664   2.610   0.200
   37EMIM     H  456   1.628   2.442   0.157
   37EMIM     H  457   1.523   2.572   0.098
   37EMIM     H  458   1.455   2.622   0.334
   37EMIM     H  459   1.559   2.492   0.393
   37EMIM     H  460   1.483   2.251   0.360
   37EMIM     H  461   1.227   2.145   0.288
   37EMIM     H  462   1.023   2.439   0.156
   37EMIM     H  463   1.055   2.272   0.100
   37EMIM     H  464   0.994   2.301   0.265
   37EMIM     H  465   1.237   2.560   0.206
   38EMIM     C  466   2.155   1.377   2.038
   38EMIM     C  467   2.143   1.344   1.890
   38EMIM     N  468   2.007   1.368   1.841
   38EMIM     C  469   1.960   1.486   1.785
   38EMIM     C  470   1.829   1.465   1.754
   38EMIM     N  471   1.799   1.335   1.792
   38EMIM     C  472   1.669   1.270   1.778
   38EMIM     C  473   1.908   1.278   1.845
   38EMIM     H  474   2.257   1.358   2.072
   38EMIM     H  475   2.131   1.481   2.057
   38EMIM     H  476   2.086   1.315   2.097
   38EMIM     H  477   2.168   1.240   1.872
   38EMIM     H  478   2.213   1.406   1.832
   38EMIM     H  479   2.026   1.570   1.774
   38EMIM     H  480   1.751   1.526   1.710
   38EMIM     H  481   1.675   1.167   1.813
   38EMIM     H  482   1.595   1.324   1.837
   38EMIM     H  483   1.640   1.271   1.673
   38EMIM     H  484   1.915   1.177   1.884
   39EMIM     C  485   2.559   2.137   1.554
   39EMIM     C  486   2.430   2.058   1.566
   39EMIM     N  487   2.457   1.914   1.580
   39EMIM     C  488   2.472   1.845   1.700
   39EMIM     C  489   2.497   1.715   1.668
   39EMIM     N  490   2.496   1.708   1.529
   39EMIM     C  491   2.520   1.587   1.450
   39EMIM     C  492   2.473   1.829   1.478
   39EMIM     H  493   2.536   2.243   1.543
   39EMIM     H  494   2.621   2.124   1.643
   39EMIM     H  495   2.616   2.104   1.467
   39EMIM     H  496   2.368   2.072   1.478
   39EMIM     H  497   2.373   2.091   1.654
   39EMIM     H  498   2.463   1.898   1.794
   39EMIM     H  499   2.515   1.625   1.724
   39EMIM     H  500   2.510   1.610   1.344
   39EMIM     H  501   2.620   1.549   1.471
   39EMIM     H  502   2.445   1.512   1.477
   39EMIM     H  503   2.467   1.855   1.372
   40EMIM     C  504   1.705   2.478   1.392
   40EMIM     C  505   1.814   2.499   1.290
   40EMIM     N  506   1.943   2.450   1.341
   40EMIM     C  507   1.995   2.322   1.322
   40EMIM     C  508   2.116   2.319   1.386
   40EMIM     N  509   2.135   2.445   1.442
   40EMIM     C  510   2.250   2.487   1.520
   40EMIM     C  511   2.029   2.522   1.414
   40EMIM     H  512   1.609   2.516   1.353
   40EMIM     H  513   1.692   2.373   1.416
   40EMIM     H  514   1.727   2.532   1.485
   40EMIM     H  515   1.826   2.605   1.266
   40EMIM     H  516   1.791   2.446   1.197
   40EMIM     H  517   1.939   2.250   1.265
   40EMIM     H  518   2.192   2.244   1.400
   40EMIM     H  519   2.240   2.591   1.549
   40EMIM     H  520   2.258   2.425   1.610
   40EMIM     H  521   2.341   2.474   1.460
   40EMIM     H  522   2.015   2.626   1.444
   41EMIM     C  523   1.579   0.310   0.941
   41EMIM     C  524   1.578   0.195   1.040
   41EMIM     N  525   1.686   0.208   1.138
   41EMIM     C  526   1.678   0.271   1.261
   41EMIM     C  527   1.801   0.262   1.319
   41EMIM     N  528   1.882   0.192   1.229
   41EMIM     C  529   2.023   0.160   1.250
   41EMIM     C  530   1.811   0.162   1.120
   41EMIM     H  531   1.498   0.297   0.868
   41EMIM     H  532   1.566   0.405   0.992
   41EMIM     H  533   1.674   0.313   0.886
   41EMIM     H  534   1.590   0.100   0.988
   41EMIM     H  535   1.483   0.192   1.094
   41EMIM     H  536   1.584   0.315   1.292
   41EMIM     H  537   1.843   0.294   1.413
   41EMIM     H  538   2.060   0.103   1.165
   41EMIM     H  539   2.080   0.252   1.260
   41EMIM     H  540   2.032   0.100   1.341
   41EMIM     H  541   1.847   0.108   1.033
   42EMIM     C  542   2.562   2.559   0.842
   42EMIM     C  543   2.433   2.517   0.908
   42EMIM     N  544   2.458   2.437   1.029
   42EMIM     C  545   2.470   2.487   1.158
   42EMIM     C  546   2.495   2.379   1.239
   42EMIM     N  547   2.497   2.267   1.156
   42EMIM     C  548   2.521   2.130   1.200
   42EMIM     C  549   2.476   2.305   1.030
   42EMIM     H  550   2.541   2.618   0.752
   42EMIM     H  551   2.622   2.620   0.909
   42EMIM     H  552   2.621   2.472   0.813
   42EMIM     H  553   2.372   2.457   0.840
   42EMIM     H  554   2.374   2.605   0.937
   42EMIM     H  555   2.459   2.592   1.176
   42EMIM     H  556   2.511   2.366   1.345
   42EMIM     H  557   2.514   2.062   1.115
   42EMIM     H  558   2.620   2.123   1.245
   42EMIM     H  559   2.446   2.102   1.275
   42EMIM     H  560   2.472   2.239   0.943
   43EMIM     C  561   0.170   2.434   1.726
   43EMIM     C  562   0.211   2.366   1.855
   43EMIM     N  563   0.273   2.236   1.828
   43EMIM     C  564   0.410   2.213   1.810
   43EMIM     C  565   0.424   2.079   1.786
   43EMIM     N  566   0.296   2.024   1.790
   43EMIM     C  567   0.264   1.883   1.768
   43EMIM     C  568   0.207   2.120   1.814
   43EMIM     H  569   0.122   2.531   1.749
   43EMIM     H  570   0.256   2.452   1.662
   43EMIM     H  571   0.098   2.373   1.670
   43EMIM     H  572   0.124   2.348   1.918
   43EMIM     H  573   0.282   2.428   1.910
   43EMIM     H  574   0.479   2.295   1.818
   43EMIM     H  575   0.508   2.015   1.768
   43EMIM     H  576   0.157   1.868   1.780
   43EMIM     H  577   0.296   1.854   1.668
   43EMIM     H  578   0.318   1.823   1.842
   43EMIM     H  579   0.099   2.107   1.822
   44EMIM     C  580   1.155   1.665   0.601
   44EMIM     C  581   1.141   1.713   0.744
   44EMIM     N  582   1.082   1.608   0.829
   44EMIM     C  583   1.152   1.513   0.902
   44EMIM     C  584   1.059   1.435   0.965
   44EMIM     N  585   0.935   1.486   0.929
   44EMIM     C  586   0.806   1.432   0.973
   44EMIM     C  587   0.951   1.589   0.846
   44EMIM     H  588   1.198   1.745   0.539
   44EMIM     H  589   1.219   1.578   0.595
   44EMIM     H  590   1.057   1.639   0.559
   44EMIM     H  591   1.077   1.800   0.750
   44EMIM     H  592   1.239   1.740   0.785
   44EMIM     H  593   1.260   1.513   0.900
   44EMIM     H  594   1.065   1.351   1.032
   44EMIM     H  595   0.725   1.493   0.933
   44EMIM     H  596   0.796   1.329   0.940
   44EMIM     H  597   0.802   1.435   1.083
   44EMIM     H  598   0.871   1.648   0.802
   45EMIM     C  599   0.720   1.549   2.410
   45EMIM     C  600   0.766   1.660   2.503
   45EMIM     N  601   0.908   1.691   2.483
   45EMIM     C  602   0.959   1.788   2.397
   45EMIM     C  603   1.095   1.782   2.408
   45EMIM     N  604   1.123   1.683   2.502
   45EMIM     C  605   1.257   1.643   2.544
   45EMIM     C  606   1.009   1.629   2.545
   45EMIM     H  607   0.614   1.527   2.428
   45EMIM     H  608   0.733   1.578   2.306
   45EMIM     H  609   0.778   1.458   2.428
   45EMIM     H  610   0.752   1.631   2.607
   45EMIM     H  611   0.707   1.751   2.486
   45EMIM     H  612   0.891   1.848   2.338
   45EMIM     H  613   1.176   1.836   2.363
   45EMIM     H  614   1.249   1.565   2.620
   45EMIM     H  615   1.313   1.605   2.458
   45EMIM     H  616   1.309   1.730   2.586
   45EMIM     H  617   1.000   1.549   2.618
   46EMIM     C  618   1.541   1.613   0.842
   46EMIM     C  619   1.597   1.658   0.709
   46EMIM     N  620   1.690   1.771   0.726
   46EMIM     C  621   1.828   1.761   0.743
   46EMIM     C  622   1.874   1.889   0.757
   46EMIM     N  623   1.764   1.973   0.747
   46EMIM     C  624   1.767   2.119   0.756
   46EMIM     C  625   1.654   1.900   0.729
   46EMIM     H  626   1.472   1.529   0.826
   46EMIM     H  627   1.621   1.579   0.908
   46EMIM     H  628   1.487   1.694   0.891
   46EMIM     H  629   1.517   1.691   0.642
   46EMIM     H  630   1.651   1.576   0.659
   46EMIM     H  631   1.875   1.664   0.744
   46EMIM     H  632   1.972   1.932   0.771
   46EMIM     H  633   1.667   2.159   0.742
   46EMIM     H  634   1.805   2.148   0.854
   46EMIM     H  635   1.834   2.158   0.678
   46EMIM     H  636   1.552   1.938   0.718
   47EMIM     C  637   1.314   1.959   1.251
   47EMIM     C  638   1.389   1.905   1.132
   47EMIM     N  639   1.371   1.990   1.013
   47EMIM     C  640   1.453   2.095   0.975
   47EMIM     C  641   1.399   2.147   0.861
   47EMIM     N  642   1.285   2.072   0.832
   47EMIM     C  643   1.196   2.093   0.719
   47EMIM     C  644   1.270   1.978   0.926
   47EMIM     H  645   1.328   1.894   1.338
   47EMIM     H  646   1.348   2.059   1.277
   47EMIM     H  647   1.207   1.965   1.230
   47EMIM     H  648   1.355   1.804   1.107
   47EMIM     H  649   1.497   1.899   1.154
   47EMIM     H  650   1.539   2.120   1.034
   47EMIM     H  651   1.426   2.228   0.795
   47EMIM     H  652   1.117   2.017   0.720
   47EMIM     H  653   1.152   2.192   0.726
   47EMIM     H  654   1.253   2.085   0.626
   47EMIM     H  655   1.190   1.904   0.930
   48EMIM     C  656   1.465   0.618   1.313
   48EMIM     C  657   1.347   0.618   1.409
   48EMIM     N  658   1.393   0.601   1.548
   48EMIM     C  659   1.422   0.704   1.637
   48EMIM     C  660   1.462   0.644   1.753
   48EMIM     N  661   1.454   0.507   1.733
   48EMIM     C  662   1.488   0.404   1.831
   48EMIM     C  663   1.414   0.483   1.608
   48EMIM     H  664   1.428   0.630   1.210
   48EMIM     H  665   1.533   0.700   1.335
   48EMIM     H  666   1.521   0.525   1.319
   48EMIM     H  667   1.279   0.536   1.386
   48EMIM     H  668   1.291   0.711   1.402
   48EMIM     H  669   1.412   0.806   1.605
   48EMIM     H  670   1.493   0.681   1.850
   48EMIM     H  671   1.470   0.306   1.789
   48EMIM     H  672   1.593   0.414   1.859
   48EMIM     H  673   1.425   0.418   1.920
   48EMIM     H  674   1.399   0.385   1.563
   49EMIM     C  675   0.348   0.410   2.269
   49EMIM     C  676   0.438   0.373   2.153
   49EMIM     N  677   0.566   0.319   2.201
   49EMIM     C  678   0.595   0.185   2.223
   49EMIM     C  679   0.724   0.180   2.268
   49EMIM     N  680   0.771   0.311   2.271
   49EMIM     C  681   0.904   0.353   2.313
   49EMIM     C  682   0.674   0.393   2.231
   49EMIM     H  683   0.253   0.451   2.231
   49EMIM     H  684   0.326   0.323   2.331
   49EMIM     H  685   0.395   0.486   2.332
   49EMIM     H  686   0.459   0.460   2.091
   49EMIM     H  687   0.390   0.297   2.090
   49EMIM     H  688   0.520   0.110   2.205
   49EMIM     H  689   0.790   0.100   2.298
   49EMIM     H  690   0.914   0.461   2.302
   49EMIM     H  691   0.920   0.324   2.417
   49EMIM     H  692   0.979   0.303   2.250
   49EMIM     H  693   0.680   0.502   2.223
   50EMIM     C  694   2.520   0.725   1.854
   50EMIM     C  695   2.521   0.875   1.874
   50EMIM     N  696   2.388   0.933   1.852
   50EMIM     C  697   2.291   0.954   1.949
   50EMIM     C  698   2.183   1.008   1.886
   50EMIM     N  699   2.217   1.020   1.752
   50EMIM     C  700   2.131   1.072   1.646
   50EMIM     C  701   2.341   0.973   1.733
   50EMIM     H  702   2.620   0.685   1.870
   50EMIM     H  703   2.451   0.677   1.923
   50EMIM     H  704   2.488   0.700   1.752
   50EMIM     H  705   2.590   0.923   1.805
   50EMIM     H  706   2.553   0.900   1.976
   50EMIM     H  707   2.311   0.928   2.052
   50EMIM     H  708   2.085   1.041   1.918
   50EMIM     H  709   2.184   1.072   1.551
   50EMIM     H  710   2.041   1.011   1.638
   50EMIM     H  711   2.102   1.175   1.671
   50EMIM     H  712   2.395   0.969   1.639
   51EMIM     C  713   0.218   0.239   1.734
   51EMIM     C  714   0.240   0.367   1.812
   51EMIM     N  715   0.287   0.475   1.723
   51EMIM     C  716   0.206   0.568   1.658
   51EMIM     C  717   0.290   0.648   1.586
   51EMIM     N  718   0.419   0.603   1.610
   51EMIM     C  719   0.541   0.660   1.552
   51EMIM     C  720   0.415   0.498   1.692
   51EMIM     H  721   0.184   0.160   1.802
   51EMIM     H  722   0.142   0.253   1.657
   51EMIM     H  723   0.310   0.206   1.686
   51EMIM     H  724   0.316   0.353   1.889
   51EMIM     H  725   0.148   0.400   1.860
   51EMIM     H  726   0.100   0.564   1.672
   51EMIM     H  727   0.275   0.733   1.521
   51EMIM     H  728   0.628   0.607   1.590
   51EMIM     H  729   0.536   0.651   1.443
   51EMIM     H  730   0.548   0.765   1.580
   51EMIM     H  731   0.501   0.441   1.728
   52BMIM     C  732   0.271   1.150   0.422
   52BMIM     C  733   0.261   1.113   0.275
   52BMIM     C  734   0.299   0.968   0.246
   52BMIM     C  735   0.203   0.867   0.310
   52BMIM     N  736   0.239   0.730   0.270
   52BMIM     C  737   0.186   0.659   0.163
   52BMIM     C  738   0.246   0.537   0.162
   52BMIM     N  739   0.335   0.535   0.269
   52BMIM     C  740   0.421   0.425   0.306
   52BMIM     C  741   0.329   0.653   0.333
   52BMIM     H  742   0.371   1.129   0.462
   52BMIM     H  743   0.252   1.257   0.435
   52BMIM     H  744   0.198   1.096   0.483
   52BMIM     H  745   0.159   1.133   0.239
   52BMIM     H  746   0.328   1.178   0.218
   52BMIM     H  747   0.301   0.953   0.138
   52BMIM     H  748   0.402   0.948   0.281
   52BMIM     H  749   0.100   0.886   0.279
   52BMIM     H  750   0.207   0.871   0.419
   52BMIM     H  751   0.111   0.706   0.101
   52BMIM     H  752   0.238   0.450   0.100
   52BMIM     H  753   0.360   0.336   0.325
   52BMIM     H  754   0.490   0.405   0.224
   52BMIM     H  755   0.478   0.450   0.396
   52BMIM     H  756   0.388   0.682   0.420
   53BMIM     C  757   1.488   0.845   0.196
   53BMIM     C  758   1.542   0.947   0.294
   53BMIM     C  759   1.688   0.925   0.331
   53BMIM     C  760   1.784   0.942   0.213
   53BMIM     N  761   1.923   0.930   0.256
   53BMIM     C  762   2.008   1.034   0.294
   53BMIM     C  763   2.127   0.978   0.327
   53BMIM     N  764   2.114   0.841   0.310
   53BMIM     C  765   2.218   0.741   0.334
   53BMIM     C  766   1.990   0.813   0.267
   53BMIM     H  767   1.502   0.743   0.233
   53BMIM     H  768   1.381   0.861   0.180
   53BMIM     H  769   1.537   0.852   0.098
   53BMIM     H  770   1.529   1.048   0.252
   53BMIM     H  771   1.482   0.943   0.385
   53BMIM     H  772   1.716   0.995   0.410
   53BMIM     H  773   1.701   0.824   0.374
   53BMIM     H  774   1.771   1.040   0.166
   53BMIM     H  775   1.767   0.866   0.135
   53BMIM     H  776   1.970   1.135   0.291
   53BMIM     H  777   2.221   1.017   0.361
   53BMIM     H  778   2.305   0.765   0.272
   53BMIM     H  779   2.245   0.745   0.440
   53BMIM     H  780   2.180   0.642   0.309
   53BMIM     H  781   1.950   0.715   0.245
   54BMIM     C  782   2.501   1.671   2.527
   54BMIM     C  783   2.424   1.729   2.409
   54BMIM     C  784   2.420   1.881   2.408
   54BMIM     C  785   2.558   1.945   2.388
   54BMIM     N  786   2.547   2.091   2.377
   54BMIM     C  787   2.535   2.164   2.259
   54BMIM     C  788   2.528   2.295   2.295
   54BMIM     N  789   2.534   2.300   2.433
   54BMIM     C  790   2.529   2.420   2.515
   54BMIM     C  791   2.546   2.175   2.482
   54BMIM     H  792   2.462   1.708   2.622
   54BMIM     H  793   2.492   1.562   2.527
   54BMIM     H  794   2.608   1.696   2.521
   54BMIM     H  795   2.467   1.692   2.315
   54BMIM     H  796   2.321   1.692   2.414
   54BMIM     H  797   2.354   1.914   2.328
   54BMIM     H  798   2.376   1.919   2.502
   54BMIM     H  799   2.606   1.907   2.297
   54BMIM     H  800   2.625   1.923   2.472
   54BMIM     H  801   2.535   2.112   2.165
   54BMIM     H  802   2.518   2.387   2.240
   54BMIM     H  803   2.610   2.487   2.485
   54BMIM     H  804   2.433   2.469   2.499
   54BMIM     H  805   2.539   2.394   2.620
   54BMIM     H  806   2.552   2.147   2.587
   55BMIM     C  807   0.661   2.498   1.693
   55BMIM     C  808   0.711   2.515   1.550
   55BMIM     C  809   0.623   2.447   1.446
   55BMIM     C  810   0.483   2.508   1.436
   55BMIM     N  811   0.407   2.445   1.327
   55BMIM     C  812   0.397   2.492   1.196
   55BMIM     C  813   0.318   2.405   1.129
   55BMIM     N  814   0.280   2.306   1.219
   55BMIM     C  815   0.195   2.191   1.191
   55BMIM     C  816   0.335   2.332   1.339
   55BMIM     H  817   0.648   2.392   1.717
   55BMIM     H  818   0.732   2.540   1.763
   55BMIM     H  819   0.565   2.548   1.708
   55BMIM     H  820   0.720   2.623   1.528
   55BMIM     H  821   0.812   2.473   1.544
   55BMIM     H  822   0.672   2.455   1.348
   55BMIM     H  823   0.615   2.340   1.467
   55BMIM     H  824   0.488   2.616   1.418
   55BMIM     H  825   0.426   2.493   1.529
   55BMIM     H  826   0.449   2.583   1.170
   55BMIM     H  827   0.282   2.399   1.028
   55BMIM     H  828   0.099   2.227   1.153
   55BMIM     H  829   0.244   2.130   1.115
   55BMIM     H  830   0.180   2.133   1.281
   55BMIM     H  831   0.325   2.273   1.429
   56BMIM     C  832   1.002   2.447   1.367
   56BMIM     C  833   1.116   2.518   1.296
   56BMIM     C  834   1.254   2.460   1.327
   56BMIM     C  835   1.271   2.317   1.275
   56BMIM     N  836   1.408   2.270   1.299
   56BMIM     C  837   1.515   2.278   1.209
   56BMIM     C  838   1.623   2.223   1.271
   56BMIM     N  839   1.582   2.184   1.397
   56BMIM     C  840   1.665   2.121   1.498
   56BMIM     C  841   1.451   2.213   1.413
   56BMIM     H  842   1.018   2.444   1.474
   56BMIM     H  843   0.908   2.498   1.348
   56BMIM     H  844   0.991   2.343   1.331
   56BMIM     H  845   1.098   2.517   1.187
   56BMIM     H  846   1.116   2.623   1.327
   56BMIM     H  847   1.330   2.524   1.282
   56BMIM     H  848   1.272   2.462   1.435
   56BMIM     H  849   1.251   2.311   1.168
   56BMIM     H  850   1.204   2.247   1.326
   56BMIM     H  851   1.498   2.321   1.112
   56BMIM     H  852   1.725   2.207   1.242
   56BMIM     H  853   1.707   2.028   1.457
   56BMIM     H  854   1.745   2.189   1.525
   56BMIM     H  855   1.605   2.098   1.586
   56BMIM     H  856   1.392   2.194   1.501
   57BMIM     C  857   0.972   0.987   0.936
   57BMIM     C  858   0.923   0.930   1.068
   57BMIM     C  859   0.948   1.021   1.187
   57BMIM     C  860   0.869   1.152   1.179
   57BMIM     N  861   0.889   1.231   1.301
   57BMIM     C  862   0.807   1.230   1.414
   57BMIM     C  863   0.862   1.318   1.503
   57BMIM     N  864   0.975   1.370   1.444
   57BMIM     C  865   1.066   1.468   1.503
   57BMIM     C  866   0.991   1.317   1.321
   57BMIM     H  867   1.078   1.013   0.941
   57BMIM     H  868   0.960   0.913   0.856
   57BMIM     H  869   0.916   1.077   0.907
   57BMIM     H  870   0.815   0.907   1.059
   57BMIM     H  871   0.974   0.835   1.085
   57BMIM     H  872   0.920   0.968   1.278
   57BMIM     H  873   1.055   1.043   1.196
   57BMIM     H  874   0.762   1.133   1.168
   57BMIM     H  875   0.901   1.214   1.095
   57BMIM     H  876   0.720   1.167   1.415
   57BMIM     H  877   0.835   1.350   1.602
   57BMIM     H  878   1.009   1.558   1.529
   57BMIM     H  879   1.110   1.425   1.593
   57BMIM     H  880   1.145   1.494   1.432
   57BMIM     H  881   1.071   1.339   1.251
   58BMIM     C  882   0.846   0.766   0.574
   58BMIM     C  883   0.861   0.823   0.434
   58BMIM     C  884   0.833   0.973   0.426
   58BMIM     C  885   0.933   1.057   0.505
   58BMIM     N  886   0.908   1.200   0.485
   58BMIM     C  887   0.967   1.283   0.390
   58BMIM     C  888   0.915   1.407   0.407
   58BMIM     N  889   0.824   1.399   0.511
   58BMIM     C  890   0.743   1.508   0.563
   58BMIM     C  891   0.820   1.273   0.558
   58BMIM     H  892   0.747   0.787   0.615
   58BMIM     H  893   0.858   0.657   0.571
   58BMIM     H  894   0.921   0.806   0.643
   58BMIM     H  895   0.963   0.802   0.397
   58BMIM     H  896   0.792   0.771   0.367
   58BMIM     H  897   0.836   1.004   0.321
   58BMIM     H  898   0.731   0.994   0.462
   58BMIM     H  899   1.036   1.036   0.474
   58BMIM     H  900   0.927   1.037   0.613
   58BMIM     H  901   1.041   1.240   0.324
   58BMIM     H  902   0.930   1.502   0.358
   58BMIM     H  903   0.809   1.589   0.596
   58BMIM     H  904   0.677   1.545   0.483
   58BMIM     H  905   0.683   1.474   0.646
   58BMIM     H  906   0.758   1.236   0.638
   59BMIM     C  907   2.516   1.643   1.006
   59BMIM     C  908   2.454   1.534   0.920
   59BMIM     C  909   2.464   1.395   0.980
   59BMIM     C  910   2.383   1.380   1.109
   59BMIM     N  911   2.387   1.242   1.158
   59BMIM     C  912   2.294   1.142   1.130
   59BMIM     C  913   2.337   1.030   1.194
   59BMIM     N  914   2.454   1.062   1.259
   59BMIM     C  915   2.535   0.972   1.341
   59BMIM     C  916   2.484   1.192   1.236
   59BMIM     H  917   2.619   1.620   1.031
   59BMIM     H  918   2.514   1.739   0.953
   59BMIM     H  919   2.460   1.656   1.100
   59BMIM     H  920   2.349   1.560   0.899
   59BMIM     H  921   2.506   1.534   0.823
   59BMIM     H  922   2.428   1.322   0.907
   59BMIM     H  923   2.569   1.370   1.000
   59BMIM     H  924   2.278   1.408   1.093
   59BMIM     H  925   2.422   1.444   1.189
   59BMIM     H  926   2.209   1.166   1.068
   59BMIM     H  927   2.299   0.930   1.203
   59BMIM     H  928   2.473   0.932   1.422
   59BMIM     H  929   2.570   0.891   1.278
   59BMIM     H  930   2.620   1.026   1.382
   59BMIM     H  931   2.570   1.245   1.274
   60BMIM     C  932   1.385   1.985   2.269
   60BMIM     C  933   1.447   1.847   2.279
   60BMIM     C  934   1.594   1.848   2.317
   60BMIM     C  935   1.619   1.903   2.458
   60BMIM     N  936   1.761   1.893   2.493
   60BMIM     C  937   1.822   1.788   2.561
   60BMIM     C  938   1.954   1.819   2.572
   60BMIM     N  939   1.972   1.941   2.510
   60BMIM     C  940   2.099   2.013   2.497
   60BMIM     C  941   1.855   1.985   2.462
   60BMIM     H  942   1.441   2.048   2.200
   60BMIM     H  943   1.282   1.978   2.232
   60BMIM     H  944   1.382   2.035   2.366
   60BMIM     H  945   1.390   1.786   2.351
   60BMIM     H  946   1.437   1.797   2.182
   60BMIM     H  947   1.634   1.746   2.311
   60BMIM     H  948   1.652   1.908   2.244
   60BMIM     H  949   1.561   1.848   2.532
   60BMIM     H  950   1.591   2.009   2.466
   60BMIM     H  951   1.761   1.705   2.594
   60BMIM     H  952   2.039   1.769   2.616
   60BMIM     H  953   2.140   2.030   2.597
   60BMIM     H  954   2.168   1.951   2.439
   60BMIM     H  955   2.082   2.108   2.447
   60BMIM     H  956   1.838   2.077   2.409
   61BMIM     C  957   0.199   1.741   2.244
   61BMIM     C  958   0.231   1.672   2.376
   61BMIM     C  959   0.218   1.521   2.370
   61BMIM     C  960   0.319   1.455   2.276
   61BMIM     N  961   0.309   1.309   2.283
   61BMIM     C  962   0.384   1.224   2.365
   61BMIM     C  963   0.342   1.098   2.339
   61BMIM     N  964   0.243   1.106   2.243
   61BMIM     C  965   0.169   0.994   2.185
   61BMIM     C  966   0.224   1.235   2.210
   61BMIM     H  967   0.100   1.713   2.208
   61BMIM     H  968   0.201   1.850   2.257
   61BMIM     H  969   0.272   1.715   2.166
   61BMIM     H  970   0.333   1.700   2.408
   61BMIM     H  971   0.162   1.710   2.452
   61BMIM     H  972   0.231   1.480   2.471
   61BMIM     H  973   0.116   1.493   2.339
   61BMIM     H  974   0.422   1.483   2.303
   61BMIM     H  975   0.303   1.484   2.172
   61BMIM     H  976   0.458   1.268   2.430
   61BMIM     H  977   0.370   1.001   2.377
   61BMIM     H  978   0.241   0.924   2.140
   61BMIM     H  979   0.114   0.944   2.265
   61BMIM     H  980   0.100   1.030   2.110
   61BMIM     H  981   0.153   1.273   2.137
   62BMIM     C  982   0.258   1.573   1.761
   62BMIM     C  983   0.278   1.474   1.647
   62BMIM     C  984   0.339   1.535   1.522
   62BMIM     C  985   0.482   1.585   1.543
   62BMIM     N  986   0.539   1.633   1.417
   62BMIM     C  987   0.616   1.559   1.328
   62BMIM     C  988   0.648   1.642   1.225
   62BMIM     N  989   0.590   1.765   1.252
   62BMIM     C  990   0.597   1.884   1.169
   62BMIM     C  991   0.524   1.758   1.369
   62BMIM     H  992   0.199   1.659   1.728
   62BMIM     H  993   0.206   1.525   1.844
   62BMIM     H  994   0.354   1.610   1.799
   62BMIM     H  995   0.340   1.390   1.683
   62BMIM     H  996   0.180   1.431   1.621
   62BMIM     H  997   0.339   1.460   1.443
   62BMIM     H  998   0.276   1.618   1.486
   62BMIM     H  999   0.546   1.505   1.582
   62BMIM     H 1000   0.485   1.668   1.615
   62BMIM     H 1001   0.639   1.457   1.352
   62BMIM     H 1002   0.705   1.631   1.135
   62BMIM     H 1003   0.703   1.910   1.154
   62BMIM     H 1004   0.551   1.862   1.072
   62BMIM     H 1005   0.545   1.966   1.217
   62BMIM     H 1006   0.468   1.838   1.416
   63BMIM     C 1007   1.445   0.537   2.466
   63BMIM     C 1008   1.512   0.482   2.341
   63BMIM     C 1009   1.663   0.471   2.352
   63BMIM     C 1010   1.709   0.370   2.458
   63BMIM     N 1011   1.855   0.356   2.457
   63BMIM     C 1012   1.928   0.261   2.386
   63BMIM     C 1013   2.059   0.284   2.413
   63BMIM     N 1014   2.064   0.392   2.500
   63BMIM     C 1015   2.185   0.453   2.555
   63BMIM     C 1016   1.939   0.435   2.525
   63BMIM     H 1017   1.488   0.633   2.495
   63BMIM     H 1018   1.338   0.551   2.449
   63BMIM     H 1019   1.456   0.469   2.552
   63BMIM     H 1020   1.468   0.383   2.318
   63BMIM     H 1021   1.488   0.548   2.257
   63BMIM     H 1022   1.704   0.442   2.255
   63BMIM     H 1023   1.707   0.569   2.375
   63BMIM     H 1024   1.665   0.271   2.439
   63BMIM     H 1025   1.679   0.401   2.559
   63BMIM     H 1026   1.876   0.189   2.326
   63BMIM     H 1027   2.152   0.238   2.383
   63BMIM     H 1028   2.241   0.376   2.610
   63BMIM     H 1029   2.246   0.491   2.473
   63BMIM     H 1030   2.159   0.534   2.622
   63BMIM     H 1031   1.912   0.518   2.589
   64BMIM     C 1032   2.518   0.341   2.201
   64BMIM     C 1033   2.470   0.385   2.338
   64BMIM     C 1034   2.481   0.535   2.361
   64BMIM     C 1035   2.390   0.617   2.269
   64BMIM     N 1036   2.397   0.760   2.303
   64BMIM     C 1037   2.312   0.829   2.389
   64BMIM     C 1038   2.355   0.958   2.391
   64BMIM     N 1039   2.464   0.966   2.307
   64BMIM     C 1040   2.542   1.086   2.280
   64BMIM     C 1041   2.490   0.845   2.254
   64BMIM     H 1042   2.621   0.374   2.183
   64BMIM     H 1043   2.516   0.232   2.194
   64BMIM     H 1044   2.454   0.380   2.121
   64BMIM     H 1045   2.366   0.352   2.352
   64BMIM     H 1046   2.530   0.334   2.414
   64BMIM     H 1047   2.456   0.557   2.465
   64BMIM     H 1048   2.585   0.568   2.348
   64BMIM     H 1049   2.286   0.585   2.278
   64BMIM     H 1050   2.419   0.607   2.164
   64BMIM     H 1051   2.232   0.775   2.436
   64BMIM     H 1052   2.321   1.047   2.442
   64BMIM     H 1053   2.476   1.163   2.239
   64BMIM     H 1054   2.587   1.121   2.373
   64BMIM     H 1055   2.621   1.064   2.208
   64BMIM     H 1056   2.569   0.821   2.185
   65BMIM     C 1057   2.121   0.582   2.072
   65BMIM     C 1058   2.043   0.545   1.947
   65BMIM     C 1059   2.129   0.483   1.838
   65BMIM     C 1060   2.188   0.347   1.877
   65BMIM     N 1061   2.260   0.287   1.765
   65BMIM     C 1062   2.209   0.197   1.672
   65BMIM     C 1063   2.310   0.168   1.586
   65BMIM     N 1064   2.420   0.239   1.626
   65BMIM     C 1065   2.552   0.239   1.563
   65BMIM     C 1066   2.389   0.312   1.736
   65BMIM     H 1067   2.205   0.647   2.049
   65BMIM     H 1068   2.056   0.634   2.143
   65BMIM     H 1069   2.160   0.492   2.123
   65BMIM     H 1070   1.961   0.477   1.974
   65BMIM     H 1071   1.997   0.636   1.907
   65BMIM     H 1072   2.068   0.470   1.748
   65BMIM     H 1073   2.210   0.551   1.810
   65BMIM     H 1074   2.109   0.277   1.908
   65BMIM     H 1075   2.258   0.356   1.961
   65BMIM     H 1076   2.106   0.166   1.681
   65BMIM     H 1077   2.318   0.104   1.499
   65BMIM     H 1078   2.589   0.136   1.560
   65BMIM     H 1079   2.541   0.277   1.461
   65BMIM     H 1080   2.620   0.302   1.618
   65BMIM     H 1081   2.456   0.378   1.790
   66BMIM     C 1082   1.686   0.925   1.571
   66BMIM     C 1083   1.736   0.930   1.428
   66BMIM     C 1084   1.863   0.849   1.405
   66BMIM     C 1085   1.843   0.699   1.425
   66BMIM     N 1086   1.965   0.625   1.392
   66BMIM     C 1087   1.996   0.568   1.268
   66BMIM     C 1088   2.119   0.510   1.281
   66BMIM     N 1089   2.160   0.532   1.411
   66BMIM     C 1090   2.286   0.488   1.470
   66BMIM     C 1091   2.066   0.602   1.478
   66BMIM     H 1092   1.763   0.956   1.642
   66BMIM     H 1093   1.600   0.992   1.584
   66BMIM     H 1094   1.653   0.824   1.599
   66BMIM     H 1095   1.657   0.895   1.360
   66BMIM     H 1096   1.757   1.034   1.402
   66BMIM     H 1097   1.899   0.867   1.304
   66BMIM     H 1098   1.943   0.884   1.472
   66BMIM     H 1099   1.762   0.661   1.361
   66BMIM     H 1100   1.817   0.674   1.529
   66BMIM     H 1101   1.926   0.577   1.188
   66BMIM     H 1102   2.183   0.455   1.215
   66BMIM     H 1103   2.293   0.378   1.461
   66BMIM     H 1104   2.369   0.534   1.416
   66BMIM     H 1105   2.291   0.516   1.575
   66BMIM     H 1106   2.071   0.634   1.581
   67BMIM     C 1107   1.345   1.269   2.257
   67BMIM     C 1108   1.388   1.256   2.402
   67BMIM     C 1109   1.497   1.152   2.424
   67BMIM     C 1110   1.630   1.188   2.357
   67BMIM     N 1111   1.734   1.090   2.390
   67BMIM     C 1112   1.825   1.099   2.494
   67BMIM     C 1113   1.903   0.988   2.489
   67BMIM     N 1114   1.857   0.912   2.383
   67BMIM     C 1115   1.910   0.783   2.340
   67BMIM     C 1116   1.754   0.975   2.323
   67BMIM     H 1117   1.314   1.172   2.216
   67BMIM     H 1118   1.261   1.338   2.248
   67BMIM     H 1119   1.426   1.308   2.194
   67BMIM     H 1120   1.422   1.354   2.439
   67BMIM     H 1121   1.301   1.228   2.461
   67BMIM     H 1122   1.514   1.141   2.532
   67BMIM     H 1123   1.464   1.053   2.388
   67BMIM     H 1124   1.664   1.287   2.388
   67BMIM     H 1125   1.620   1.190   2.247
   67BMIM     H 1126   1.823   1.186   2.558
   67BMIM     H 1127   1.985   0.951   2.548
   67BMIM     H 1128   2.017   0.794   2.317
   67BMIM     H 1129   1.897   0.711   2.421
   67BMIM     H 1130   1.857   0.748   2.252
   67BMIM     H 1131   1.698   0.940   2.238
   68BMIM     C 1132   0.196   1.176   1.651
   68BMIM     C 1133   0.180   1.026   1.664
   68BMIM     C 1134   0.306   0.955   1.712
   68BMIM     C 1135   0.346   0.994   1.855
   68BMIM     N 1136   0.461   0.915   1.900
   68BMIM     C 1137   0.457   0.796   1.972
   68BMIM     C 1138   0.586   0.758   1.992
   68BMIM     N 1139   0.666   0.853   1.932
   68BMIM     C 1140   0.812   0.852   1.929
   68BMIM     C 1141   0.590   0.948   1.877
   68BMIM     H 1142   0.280   1.202   1.587
   68BMIM     H 1143   0.105   1.220   1.607
   68BMIM     H 1144   0.212   1.224   1.749
   68BMIM     H 1145   0.096   1.004   1.732
   68BMIM     H 1146   0.153   0.985   1.566
   68BMIM     H 1147   0.289   0.847   1.708
   68BMIM     H 1148   0.389   0.976   1.644
   68BMIM     H 1149   0.263   0.977   1.925
   68BMIM     H 1150   0.373   1.100   1.862
   68BMIM     H 1151   0.361   0.756   1.999
   68BMIM     H 1152   0.632   0.674   2.041
   68BMIM     H 1153   0.850   0.850   2.032
   68BMIM     H 1154   0.845   0.763   1.875
   68BMIM     H 1155   0.849   0.941   1.878
   68BMIM     H 1156   0.624   1.036   1.823
   2.72000   2.72000   2.72000
