; ITP file created by ByteFF-ML, 2026-09-15 21:28:11.271235

[ moleculetype ]
;name             nrexcl
 TFSI                  3

[ atoms ]
;       nr            type      resi   res      atom      cgnr      charge          mass ; qtot
         1            o0bf         1   UNL        o0         1    -0.47331       15.9990 ; qtot   -0.473
         2            s1bf         1   UNL        s1         2     0.80501       32.0670 ; qtot    0.332
         3            o2bf         1   UNL        o2         3    -0.47331       15.9990 ; qtot   -0.142
         4            n3bf         1   UNL        n3         4    -0.57900       14.0070 ; qtot   -0.721
         5            s4bf         1   UNL        s4         5     0.80500       32.0670 ; qtot    0.084
         6            o5bf         1   UNL        o5         6    -0.47331       15.9990 ; qtot   -0.389
         7            o6bf         1   UNL        o6         7    -0.47331       15.9990 ; qtot   -0.862
         8            c7bf         1   UNL        c7         8     0.23805       12.0110 ; qtot   -0.624
         9            f8bf         1   UNL        f8         9    -0.10231       18.9980 ; qtot   -0.726
        10            f9bf         1   UNL        f9        10    -0.10231       18.9980 ; qtot   -0.829
        11           f10bf         1   UNL       f10        11    -0.10231       18.9980 ; qtot   -0.931
        12           c11bf         1   UNL       c11        12     0.23805       12.0110 ; qtot   -0.693
        13           f12bf         1   UNL       f12        13    -0.10231       18.9980 ; qtot   -0.795
        14           f13bf         1   UNL       f13        14    -0.10231       18.9980 ; qtot   -0.898
        15           f14bf         1   UNL       f14        15    -0.10232       18.9980 ; qtot   -1.000

[ bonds ]
;       ai        aj funct               r               k
         1         2     1        0.147186   468080.301172
         2         3     1        0.147186   468080.301172
         2         4     1        0.158393   198582.793555
         2        12     1        0.191323   115203.544092
         4         5     1        0.158393   198582.819092
         5         6     1        0.147186   468080.403320
         5         7     1        0.147186   468080.403320
         5         8     1        0.191323   115203.454712
         8         9     1        0.139906   246317.473437
         8        10     1        0.139906   246317.473437
         8        11     1        0.139906   246317.473437
        12        13     1        0.139906   246317.447900
        12        14     1        0.139906   246317.473437
        12        15     1        0.139906   246317.473437

[ angles ]
;       ai        aj        ak funct           theta             cth
         1         2         3     1      120.374176      725.644879
         1         2         4     1      113.599777      568.082191
         1         2        12     1      103.784119      331.868207
         2         4         5     1      122.967026      622.350975
         2        12        13     1      111.505531      419.057836
         2        12        14     1      111.505531      419.057836
         2        12        15     1      111.505531      419.057836
         3         2         4     1      113.599777      568.082191
         3         2        12     1      103.784119      331.868207
         4         2        12     1      103.284691      313.012499
         4         5         6     1      113.599792      568.082191
         4         5         7     1      113.599792      568.082191
         4         5         8     1      103.284668      313.012627
         5         8         9     1      111.505516      419.058027
         5         8        10     1      111.505516      419.058027
         5         8        11     1      111.505516      419.058027
         6         5         7     1      120.374191      725.644879
         6         5         8     1      103.784126      331.868367
         7         5         8     1      103.784126      331.868367
         9         8        10     1      108.866684      720.716473
         9         8        11     1      108.866684      720.716473
        10         8        11     1      108.866684      720.716473
        13        12        14     1      108.866676      720.716983
        13        12        15     1      108.866676      720.716983
        14        12        15     1      108.866699      720.716728

[ dihedrals ] ; propers for gromacs 4.5 or higher, use funct 9
;       ai        aj        ak        al funct           phase               k        pn
         1         2         4         5     9        0.000000        8.493633         1
         1         2         4         5     9      180.000000        1.741358         2
         1         2         4         5     9        0.000000        0.770994         3
         1         2         4         5     9      180.000000       -0.013813         4
         1         2        12        13     9        0.000000        3.828543         1
         1         2        12        13     9      180.000000        2.480475         2
         1         2        12        13     9        0.000000        0.643926         3
         1         2        12        13     9      180.000000        0.178084         4
         1         2        12        14     9        0.000000        3.828543         1
         1         2        12        14     9      180.000000        2.480475         2
         1         2        12        14     9        0.000000        0.643926         3
         1         2        12        14     9      180.000000        0.178084         4
         1         2        12        15     9        0.000000        3.828543         1
         1         2        12        15     9      180.000000        2.480475         2
         1         2        12        15     9        0.000000        0.643926         3
         1         2        12        15     9      180.000000        0.178084         4
         2         4         5         6     9        0.000000        8.493624         1
         2         4         5         6     9      180.000000        1.741356         2
         2         4         5         6     9        0.000000        0.770994         3
         2         4         5         6     9      180.000000       -0.013813         4
         2         4         5         7     9        0.000000        8.493624         1
         2         4         5         7     9      180.000000        1.741356         2
         2         4         5         7     9        0.000000        0.770994         3
         2         4         5         7     9      180.000000       -0.013813         4
         2         4         5         8     9        0.000000       17.889826         1
         2         4         5         8     9      180.000000       -2.371376         2
         2         4         5         8     9        0.000000       -0.751354         3
         2         4         5         8     9      180.000000       -0.017159         4
         3         2         4         5     9        0.000000        8.493633         1
         3         2         4         5     9      180.000000        1.741358         2
         3         2         4         5     9        0.000000        0.770994         3
         3         2         4         5     9      180.000000       -0.013813         4
         3         2        12        13     9        0.000000        3.828543         1
         3         2        12        13     9      180.000000        2.480475         2
         3         2        12        13     9        0.000000        0.643926         3
         3         2        12        13     9      180.000000        0.178084         4
         3         2        12        14     9        0.000000        3.828543         1
         3         2        12        14     9      180.000000        2.480475         2
         3         2        12        14     9        0.000000        0.643926         3
         3         2        12        14     9      180.000000        0.178084         4
         3         2        12        15     9        0.000000        3.828543         1
         3         2        12        15     9      180.000000        2.480475         2
         3         2        12        15     9        0.000000        0.643926         3
         3         2        12        15     9      180.000000        0.178084         4
         4         2        12        13     9        0.000000        3.672567         1
         4         2        12        13     9      180.000000        4.353811         2
         4         2        12        13     9        0.000000        0.253079         3
         4         2        12        13     9      180.000000        0.013170         4
         4         2        12        14     9        0.000000        3.672567         1
         4         2        12        14     9      180.000000        4.353811         2
         4         2        12        14     9        0.000000        0.253079         3
         4         2        12        14     9      180.000000        0.013170         4
         4         2        12        15     9        0.000000        3.672567         1
         4         2        12        15     9      180.000000        4.353811         2
         4         2        12        15     9        0.000000        0.253079         3
         4         2        12        15     9      180.000000        0.013170         4
         4         5         8         9     9        0.000000        3.672555         1
         4         5         8         9     9      180.000000        4.353813         2
         4         5         8         9     9        0.000000        0.253078         3
         4         5         8         9     9      180.000000        0.013169         4
         4         5         8        10     9        0.000000        3.672555         1
         4         5         8        10     9      180.000000        4.353813         2
         4         5         8        10     9        0.000000        0.253078         3
         4         5         8        10     9      180.000000        0.013169         4
         4         5         8        11     9        0.000000        3.672555         1
         4         5         8        11     9      180.000000        4.353813         2
         4         5         8        11     9        0.000000        0.253078         3
         4         5         8        11     9      180.000000        0.013169         4
         5         4         2        12     9        0.000000       17.889836         1
         5         4         2        12     9      180.000000       -2.371377         2
         5         4         2        12     9        0.000000       -0.751355         3
         5         4         2        12     9      180.000000       -0.017158         4
         6         5         8         9     9        0.000000        3.828534         1
         6         5         8         9     9      180.000000        2.480478         2
         6         5         8         9     9        0.000000        0.643926         3
         6         5         8         9     9      180.000000        0.178083         4
         6         5         8        10     9        0.000000        3.828534         1
         6         5         8        10     9      180.000000        2.480478         2
         6         5         8        10     9        0.000000        0.643926         3
         6         5         8        10     9      180.000000        0.178083         4
         6         5         8        11     9        0.000000        3.828534         1
         6         5         8        11     9      180.000000        2.480478         2
         6         5         8        11     9        0.000000        0.643926         3
         6         5         8        11     9      180.000000        0.178083         4
         7         5         8         9     9        0.000000        3.828534         1
         7         5         8         9     9      180.000000        2.480478         2
         7         5         8         9     9        0.000000        0.643926         3
         7         5         8         9     9      180.000000        0.178083         4
         7         5         8        10     9        0.000000        3.828534         1
         7         5         8        10     9      180.000000        2.480478         2
         7         5         8        10     9        0.000000        0.643926         3
         7         5         8        10     9      180.000000        0.178083         4
         7         5         8        11     9        0.000000        3.828534         1
         7         5         8        11     9      180.000000        2.480478         2
         7         5         8        11     9        0.000000        0.643926         3
         7         5         8        11     9      180.000000        0.178083         4

[ pairs ]
;       ai        aj funct
         1         5     1
         1        13     1
         1        14     1
         1        15     1
         2         6     1
         2         7     1
         2         8     1
         3         5     1
         3        13     1
         3        14     1
         3        15     1
         4         9     1
         4        10     1
         4        11     1
         4        13     1
         4        14     1
         4        15     1
         5        12     1
         6         9     1
         6        10     1
         6        11     1
         7         9     1
         7        10     1
         7        11     1
