A Gromacs structure file written by ASE
 4556
    1EC       O    1   0.148   2.242   2.042
    1EC       C    2   0.174   2.336   1.968
    1EC       O    3   0.100   2.372   1.860
    1EC       C    4   0.176   2.467   1.788
    1EC       C    5   0.264   2.526   1.894
    1EC       O    6   0.283   2.417   1.983
    1EC       H    7   0.233   2.414   1.711
    1EC       H    8   0.112   2.542   1.741
    1EC       H    9   0.214   2.607   1.948
    1EC       H   10   0.359   2.562   1.855
    2EC       O   11   1.858   3.965   2.056
    2EC       C   12   1.844   3.902   2.160
    2EC       O   13   1.735   3.911   2.242
    2EC       C   14   1.769   3.843   2.360
    2EC       C   15   1.872   3.745   2.315
    2EC       O   16   1.936   3.814   2.208
    2EC       H   17   1.809   3.916   2.432
    2EC       H   18   1.682   3.794   2.404
    2EC       H   19   1.827   3.653   2.275
    2EC       H   20   1.944   3.719   2.393
    3EC       O   21   3.313   2.254   1.409
    3EC       C   22   3.376   2.235   1.306
    3EC       O   23   3.430   2.116   1.268
    3EC       C   24   3.514   2.142   1.158
    3EC       C   25   3.455   2.267   1.100
    3EC       O   26   3.402   2.333   1.214
    3EC       H   27   3.615   2.158   1.196
    3EC       H   28   3.514   2.060   1.087
    3EC       H   29   3.373   2.245   1.031
    3EC       H   30   3.529   2.330   1.050
    4EC       O   31   1.795   0.399   2.966
    4EC       C   32   1.793   0.407   3.088
    4EC       O   33   1.868   0.493   3.161
    4EC       C   34   1.855   0.454   3.296
    4EC       C   35   1.721   0.386   3.298
    4EC       O   36   1.713   0.329   3.168
    4EC       H   37   1.936   0.386   3.321
    4EC       H   38   1.858   0.540   3.363
    4EC       H   39   1.639   0.457   3.311
    4EC       H   40   1.714   0.309   3.374
    5EC       O   41   1.091   1.571   3.270
    5EC       C   42   1.128   1.581   3.386
    5EC       O   43   1.191   1.482   3.456
    5EC       C   44   1.193   1.523   3.591
    5EC       C   45   1.186   1.672   3.581
    5EC       O   46   1.109   1.692   3.463
    5EC       H   47   1.106   1.481   3.641
    5EC       H   48   1.284   1.489   3.641
    5EC       H   49   1.285   1.717   3.567
    5EC       H   50   1.138   1.719   3.667
    6EC       O   51   0.917   0.693   3.203
    6EC       C   52   0.806   0.678   3.252
    6EC       O   53   0.688   0.698   3.186
    6EC       C   54   0.586   0.695   3.283
    6EC       C   55   0.646   0.611   3.391
    6EC       O   56   0.785   0.640   3.382
    6EC       H   57   0.567   0.798   3.316
    6EC       H   58   0.495   0.652   3.243
    6EC       H   59   0.631   0.504   3.374
    6EC       H   60   0.608   0.637   3.491
    7EC       O   61   2.231   1.089   1.913
    7EC       C   62   2.115   1.050   1.908
    7EC       O   63   2.072   0.929   1.952
    7EC       C   64   1.940   0.913   1.907
    7EC       C   65   1.893   1.055   1.891
    7EC       O   66   2.012   1.124   1.856
    7EC       H   67   1.942   0.860   1.811
    7EC       H   68   1.879   0.857   1.978
    7EC       H   69   1.855   1.096   1.985
    7EC       H   70   1.817   1.066   1.813
    8EC       O   71   1.159   2.303   0.921
    8EC       C   72   1.155   2.270   0.803
    8EC       O   73   1.239   2.181   0.745
    8EC       C   74   1.218   2.190   0.606
    8EC       C   75   1.077   2.240   0.597
    8EC       O   76   1.065   2.320   0.713
    8EC       H   77   1.290   2.261   0.564
    8EC       H   78   1.231   2.093   0.557
    8EC       H   79   1.004   2.159   0.602
    8EC       H   80   1.059   2.299   0.507
    9EC       O   81   0.457   3.008   3.681
    9EC       C   82   0.378   3.100   3.698
    9EC       O   83   0.243   3.086   3.711
    9EC       C   84   0.188   3.215   3.704
    9EC       C   85   0.301   3.302   3.751
    9EC       O   86   0.416   3.232   3.706
    9EC       H   87   0.160   3.235   3.600
    9EC       H   88   0.100   3.224   3.768
    9EC       H   89   0.304   3.310   3.860
    9EC       H   90   0.297   3.403   3.707
   10EC       O   91   2.150   0.525   0.706
   10EC       C   92   2.116   0.408   0.706
   10EC       O   93   1.991   0.363   0.737
   10EC       C   94   2.001   0.223   0.750
   10EC       C   95   2.118   0.190   0.663
   10EC       O   96   2.201   0.305   0.676
   10EC       H   97   2.019   0.199   0.855
   10EC       H   98   1.909   0.173   0.716
   10EC       H   99   2.090   0.177   0.558
   10EC       H  100   2.172   0.100   0.696
   11EC       O  101   2.864   3.902   2.076
   11EC       C  102   2.767   3.827   2.072
   11EC       O  103   2.739   3.741   1.970
   11EC       C  104   2.609   3.693   1.991
   11EC       C  105   2.593   3.706   2.140
   11EC       O  106   2.672   3.820   2.170
   11EC       H  107   2.539   3.756   1.937
   11EC       H  108   2.598   3.590   1.958
   11EC       H  109   2.634   3.619   2.193
   11EC       H  110   2.489   3.722   2.171
   12EC       O  111   3.694   3.228   1.367
   12EC       C  112   3.590   3.290   1.351
   12EC       O  113   3.581   3.414   1.297
   12EC       C  114   3.450   3.459   1.319
   12EC       C  115   3.372   3.332   1.331
   12EC       O  116   3.467   3.242   1.388
   12EC       H  117   3.448   3.517   1.412
   12EC       H  118   3.414   3.522   1.237
   12EC       H  119   3.342   3.294   1.233
   12EC       H  120   3.284   3.341   1.395
   13EC       O  121   0.947   1.842   0.470
   13EC       C  122   1.046   1.783   0.428
   13EC       O  123   1.174   1.817   0.457
   13EC       C  124   1.257   1.742   0.371
   13EC       C  125   1.172   1.622   0.340
   13EC       O  126   1.040   1.675   0.345
   13EC       H  127   1.278   1.802   0.282
   13EC       H  128   1.351   1.714   0.419
   13EC       H  129   1.182   1.544   0.416
   13EC       H  130   1.193   1.579   0.242
   14EC       O  131   1.131   0.341   1.786
   14EC       C  132   1.051   0.428   1.755
   14EC       O  133   0.921   0.430   1.794
   14EC       C  134   0.857   0.531   1.719
   14EC       C  135   0.970   0.623   1.686
   14EC       O  136   1.082   0.536   1.676
   14EC       H  137   0.814   0.485   1.629
   14EC       H  138   0.779   0.580   1.776
   14EC       H  139   0.989   0.696   1.766
   14EC       H  140   0.956   0.677   1.592
   15EC       O  141   1.145   1.031   0.118
   15EC       C  142   1.132   1.114   0.207
   15EC       O  143   1.148   1.090   0.340
   15EC       C  144   1.100   1.204   0.408
   15EC       C  145   1.116   1.313   0.307
   15EC       O  146   1.097   1.245   0.184
   15EC       H  147   0.995   1.186   0.434
   15EC       H  148   1.157   1.223   0.499
   15EC       H  149   1.217   1.356   0.308
   15EC       H  150   1.043   1.393   0.319
   16EC       O  151   3.182   3.982   0.952
   16EC       C  152   3.066   3.947   0.939
   16EC       O  153   2.962   4.030   0.912
   16EC       C  154   2.844   3.955   0.930
   16EC       C  155   2.890   3.815   0.906
   16EC       O  156   3.024   3.817   0.952
   16EC       H  157   2.809   3.971   1.032
   16EC       H  158   2.766   3.986   0.860
   16EC       H  159   2.889   3.789   0.799
   16EC       H  160   2.831   3.741   0.961
   17EC       O  161   2.122   3.290   3.270
   17EC       C  162   2.033   3.224   3.219
   17EC       O  163   1.913   3.197   3.278
   17EC       C  164   1.849   3.099   3.200
   17EC       C  165   1.910   3.121   3.065
   17EC       O  166   2.041   3.166   3.095
   17EC       H  167   1.874   3.001   3.241
   17EC       H  168   1.741   3.112   3.199
   17EC       H  169   1.858   3.198   3.008
   17EC       H  170   1.914   3.029   3.004
   18EC       O  171   0.207   3.632   0.737
   18EC       C  172   0.214   3.513   0.711
   18EC       O  173   0.312   3.455   0.636
   18EC       C  174   0.271   3.323   0.609
   18EC       C  175   0.178   3.293   0.723
   18EC       O  176   0.122   3.420   0.752
   18EC       H  177   0.219   3.323   0.512
   18EC       H  178   0.355   3.254   0.605
   18EC       H  179   0.232   3.257   0.811
   18EC       H  180   0.100   3.221   0.696
   19EC       O  181   3.625   1.305   1.466
   19EC       C  182   3.641   1.305   1.587
   19EC       O  183   3.700   1.406   1.658
   19EC       C  184   3.721   1.357   1.788
   19EC       C  185   3.616   1.252   1.802
   19EC       O  186   3.602   1.203   1.669
   19EC       H  187   3.822   1.316   1.793
   19EC       H  188   3.711   1.436   1.862
   19EC       H  189   3.520   1.294   1.834
   19EC       H  190   3.645   1.171   1.870
   20EC       O  191   0.887   1.614   2.527
   20EC       C  192   0.801   1.674   2.464
   20EC       O  193   0.668   1.673   2.494
   20EC       C  194   0.601   1.732   2.385
   20EC       C  195   0.706   1.821   2.326
   20EC       O  196   0.826   1.750   2.353
   20EC       H  197   0.570   1.653   2.317
   20EC       H  198   0.514   1.788   2.418
   20EC       H  199   0.711   1.918   2.375
   20EC       H  200   0.694   1.835   2.218
   21EC       O  201   2.446   0.384   0.499
   21EC       C  202   2.451   0.502   0.529
   21EC       O  203   2.349   0.591   0.511
   21EC       C  204   2.403   0.719   0.535
   21EC       C  205   2.518   0.691   0.625
   21EC       O  206   2.561   0.563   0.583
   21EC       H  207   2.435   0.762   0.439
   21EC       H  208   2.329   0.786   0.580
   21EC       H  209   2.487   0.686   0.730
   21EC       H  210   2.599   0.764   0.615
   22EC       O  211   3.473   2.486   4.018
   22EC       C  212   3.542   2.400   3.964
   22EC       O  213   3.606   2.300   4.030
   22EC       C  214   3.693   2.239   3.937
   22EC       C  215   3.627   2.269   3.806
   22EC       O  216   3.565   2.394   3.829
   22EC       H  217   3.791   2.286   3.946
   22EC       H  218   3.703   2.132   3.956
   22EC       H  219   3.551   2.195   3.781
   22EC       H  220   3.699   2.276   3.723
   23EC       O  221   1.368   3.036   2.927
   23EC       C  222   1.297   3.109   2.995
   23EC       O  223   1.324   3.239   3.023
   23EC       C  224   1.233   3.279   3.122
   23EC       C  225   1.117   3.187   3.100
   23EC       O  226   1.180   3.069   3.052
   23EC       H  227   1.279   3.264   3.220
   23EC       H  228   1.205   3.384   3.111
   23EC       H  229   1.049   3.225   3.023
   23EC       H  230   1.060   3.167   3.191
   24EC       O  231   0.563   2.941   0.491
   24EC       C  232   0.610   3.053   0.506
   24EC       O  233   0.734   3.079   0.554
   24EC       C  234   0.740   3.217   0.580
   24EC       C  235   0.637   3.273   0.487
   24EC       O  236   0.541   3.168   0.479
   24EC       H  237   0.714   3.234   0.685
   24EC       H  238   0.839   3.258   0.561
   24EC       H  239   0.678   3.291   0.387
   24EC       H  240   0.591   3.365   0.524
   25EC       O  241   0.711   3.574   0.992
   25EC       C  242   0.599   3.532   1.014
   25EC       O  243   0.551   3.495   1.136
   25EC       C  244   0.428   3.431   1.114
   25EC       C  245   0.382   3.490   0.985
   25EC       O  246   0.504   3.516   0.916
   25EC       H  247   0.446   3.323   1.106
   25EC       H  248   0.358   3.449   1.196
   25EC       H  249   0.329   3.585   1.000
   25EC       H  250   0.318   3.422   0.927
   26EC       O  251   1.317   1.522   1.041
   26EC       C  252   1.431   1.486   1.016
   26EC       O  253   1.477   1.459   0.891
   26EC       C  254   1.603   1.398   0.907
   26EC       C  255   1.649   1.451   1.039
   26EC       O  256   1.528   1.468   1.111
   26EC       H  257   1.589   1.289   0.908
   26EC       H  258   1.671   1.425   0.826
   26EC       H  259   1.698   1.548   1.029
   26EC       H  260   1.716   1.382   1.092
   27EC       O  261   3.093   1.399   3.665
   27EC       C  262   3.059   1.283   3.650
   27EC       O  263   2.938   1.243   3.603
   27EC       C  264   2.930   1.104   3.624
   27EC       C  265   3.074   1.062   3.626
   27EC       O  266   3.139   1.176   3.681
   27EC       H  267   2.880   1.086   3.720
   27EC       H  268   2.874   1.054   3.545
   27EC       H  269   3.113   1.043   3.526
   27EC       H  270   3.091   0.974   3.689
   28EC       O  271   1.044   1.296   1.348
   28EC       C  272   1.041   1.417   1.362
   28EC       O  273   0.928   1.490   1.384
   28EC       C  274   0.964   1.626   1.370
   28EC       C  275   1.110   1.625   1.401
   28EC       O  276   1.152   1.497   1.355
   28EC       H  277   0.943   1.656   1.266
   28EC       H  278   0.907   1.689   1.438
   28EC       H  279   1.129   1.633   1.508
   28EC       H  280   1.165   1.704   1.349
   29EC       O  281   2.766   1.932   1.364
   29EC       C  282   2.688   2.018   1.325
   29EC       O  283   2.568   2.046   1.382
   29EC       C  284   2.500   2.133   1.294
   29EC       C  285   2.612   2.200   1.220
   29EC       O  286   2.712   2.099   1.217
   29EC       H  287   2.437   2.072   1.227
   29EC       H  288   2.437   2.204   1.348
   29EC       H  289   2.650   2.286   1.275
   29EC       H  290   2.584   2.230   1.119
   30EC       O  291   1.294   0.642   1.011
   30EC       C  292   1.192   0.696   1.050
   30EC       O  293   1.066   0.650   1.026
   30EC       C  294   0.977   0.752   1.065
   30EC       C  295   1.056   0.827   1.168
   30EC       O  296   1.189   0.812   1.123
   30EC       H  297   0.954   0.814   0.977
   30EC       H  298   0.884   0.711   1.105
   30EC       H  299   1.046   0.782   1.267
   30EC       H  300   1.028   0.933   1.174
   31EC       O  301   1.380   0.351   3.014
   31EC       C  302   1.312   0.449   3.041
   31EC       O  303   1.268   0.540   2.950
   31EC       C  304   1.215   0.648   3.023
   31EC       C  305   1.175   0.585   3.152
   31EC       O  306   1.271   0.481   3.168
   31EC       H  307   1.294   0.723   3.036
   31EC       H  308   1.131   0.694   2.971
   31EC       H  309   1.075   0.541   3.147
   31EC       H  310   1.180   0.654   3.237
   32EC       O  311   1.573   3.948   0.338
   32EC       C  312   1.640   3.864   0.398
   32EC       O  313   1.739   3.893   0.486
   32EC       C  314   1.807   3.773   0.512
   32EC       C  315   1.703   3.669   0.484
   32EC       O  316   1.625   3.729   0.382
   32EC       H  317   1.892   3.766   0.444
   32EC       H  318   1.843   3.769   0.615
   32EC       H  319   1.639   3.651   0.571
   32EC       H  320   1.745   3.574   0.450
   33EC       O  321   1.731   0.144   2.075
   33EC       C  322   1.614   0.178   2.091
   33EC       O  323   1.570   0.307   2.090
   33EC       C  324   1.437   0.305   2.135
   33EC       C  325   1.392   0.166   2.099
   33EC       O  326   1.512   0.090   2.112
   33EC       H  327   1.436   0.322   2.243
   33EC       H  328   1.377   0.381   2.086
   33EC       H  329   1.357   0.159   1.996
   33EC       H  330   1.315   0.128   2.166
   34EC       O  331   3.064   3.107   2.094
   34EC       C  332   3.110   3.206   2.148
   34EC       O  333   3.115   3.226   2.282
   34EC       C  334   3.150   3.361   2.302
   34EC       C  335   3.224   3.395   2.177
   34EC       O  336   3.161   3.314   2.079
   34EC       H  337   3.058   3.419   2.313
   34EC       H  338   3.211   3.374   2.391
   34EC       H  339   3.330   3.368   2.183
   34EC       H  340   3.216   3.501   2.150
   35EC       O  341   1.732   0.463   2.284
   35EC       C  342   1.840   0.408   2.275
   35EC       O  343   1.961   0.470   2.292
   35EC       C  344   2.059   0.380   2.248
   35EC       C  345   1.994   0.247   2.268
   35EC       O  346   1.856   0.276   2.245
   35EC       H  347   2.081   0.401   2.143
   35EC       H  348   2.151   0.390   2.307
   35EC       H  349   2.005   0.210   2.370
   35EC       H  350   2.029   0.171   2.197
   36EC       O  351   3.025   1.585   1.540
   36EC       C  352   3.129   1.614   1.483
   36EC       O  353   3.137   1.670   1.359
   36EC       C  354   3.272   1.665   1.320
   36EC       C  355   3.344   1.661   1.452
   36EC       O  356   3.253   1.593   1.536
   36EC       H  357   3.288   1.573   1.262
   36EC       H  358   3.300   1.751   1.260
   36EC       H  359   3.361   1.762   1.492
   36EC       H  360   3.440   1.608   1.446
   37EC       O  361   0.302   1.010   3.054
   37EC       C  362   0.418   0.997   3.019
   37EC       O  363   0.483   1.079   2.932
   37EC       C  364   0.604   1.016   2.899
   37EC       C  365   0.630   0.930   3.019
   37EC       O  366   0.500   0.896   3.063
   37EC       H  367   0.590   0.957   2.808
   37EC       H  368   0.684   1.089   2.883
   37EC       H  369   0.681   0.985   3.099
   37EC       H  370   0.688   0.840   2.995
   38EC       O  371   0.549   3.111   2.761
   38EC       C  372   0.671   3.111   2.766
   38EC       O  373   0.749   3.000   2.765
   38EC       C  374   0.879   3.041   2.797
   38EC       C  375   0.880   3.185   2.754
   38EC       O  376   0.746   3.225   2.775
   38EC       H  377   0.893   3.031   2.906
   38EC       H  378   0.955   2.982   2.746
   38EC       H  379   0.905   3.195   2.647
   38EC       H  380   0.949   3.247   2.812
   39EC       O  381   2.349   2.160   2.396
   39EC       C  382   2.335   2.066   2.474
   39EC       O  383   2.417   2.040   2.580
   39EC       C  384   2.382   1.913   2.627
   39EC       C  385   2.240   1.898   2.584
   39EC       O  386   2.235   1.973   2.463
   39EC       H  387   2.448   1.839   2.580
   39EC       H  388   2.393   1.906   2.736
   39EC       H  389   2.170   1.943   2.656
   39EC       H  390   2.211   1.794   2.566
   40EC       O  391   1.613   1.668   2.317
   40EC       C  392   1.583   1.783   2.344
   40EC       O  393   1.566   1.883   2.253
   40EC       C  394   1.558   2.003   2.325
   40EC       C  395   1.509   1.959   2.460
   40EC       O  396   1.565   1.829   2.472
   40EC       H  397   1.658   2.047   2.330
   40EC       H  398   1.490   2.074   2.278
   40EC       H  399   1.400   1.951   2.463
   40EC       H  400   1.543   2.023   2.541
   41EC       O  401   0.756   0.316   3.131
   41EC       C  402   0.796   0.393   3.045
   41EC       O  403   0.762   0.525   3.037
   41EC       C  404   0.808   0.572   2.912
   41EC       C  405   0.921   0.479   2.882
   41EC       O  406   0.881   0.358   2.944
   41EC       H  407   0.726   0.562   2.840
   41EC       H  408   0.839   0.676   2.918
   41EC       H  409   1.015   0.513   2.928
   41EC       H  410   0.937   0.465   2.775
   42EC       O  411   2.862   1.629   1.045
   42EC       C  412   2.777   1.657   1.128
   42EC       O  413   2.799   1.665   1.262
   42EC       C  414   2.673   1.675   1.323
   42EC       C  415   2.589   1.737   1.216
   42EC       O  416   2.647   1.685   1.097
   42EC       H  417   2.638   1.575   1.351
   42EC       H  418   2.677   1.737   1.413
   42EC       H  419   2.596   1.846   1.215
   42EC       H  420   2.483   1.709   1.223
   43EC       O  421   3.239   3.662   3.508
   43EC       C  422   3.329   3.721   3.452
   43EC       O  423   3.411   3.667   3.357
   43EC       C  424   3.516   3.758   3.337
   43EC       C  425   3.455   3.889   3.377
   43EC       O  426   3.363   3.851   3.479
   43EC       H  427   3.599   3.729   3.401
   43EC       H  428   3.549   3.758   3.233
   43EC       H  429   3.400   3.936   3.295
   43EC       H  430   3.529   3.960   3.416
   44EC       O  431   0.179   1.011   2.834
   44EC       C  432   0.197   0.905   2.892
   44EC       O  433   0.100   0.837   2.959
   44EC       C  434   0.165   0.735   3.031
   44EC       C  435   0.290   0.712   2.952
   44EC       O  436   0.317   0.841   2.898
   44EC       H  437   0.186   0.772   3.132
   44EC       H  438   0.103   0.645   3.038
   44EC       H  439   0.274   0.642   2.869
   44EC       H  440   0.373   0.677   3.013
   45EC       O  441   1.304   2.648   1.652
   45EC       C  442   1.401   2.696   1.708
   45EC       O  443   1.447   2.823   1.689
   45EC       C  444   1.572   2.831   1.753
   45EC       C  445   1.563   2.725   1.858
   45EC       O  446   1.478   2.628   1.799
   45EC       H  447   1.650   2.808   1.679
   45EC       H  448   1.590   2.930   1.794
   45EC       H  449   1.515   2.763   1.950
   45EC       H  450   1.660   2.681   1.884
   46EC       O  451   2.141   0.100   2.895
   46EC       C  452   2.240   0.141   2.836
   46EC       O  453   2.362   0.159   2.893
   46EC       C  454   2.440   0.230   2.800
   46EC       C  455   2.378   0.194   2.669
   46EC       O  456   2.241   0.176   2.703
   46EC       H  457   2.432   0.337   2.822
   46EC       H  458   2.545   0.200   2.805
   46EC       H  459   2.417   0.100   2.629
   46EC       H  460   2.388   0.272   2.593
   47EC       O  461   2.551   3.060   3.106
   47EC       C  462   2.505   3.037   2.996
   47EC       O  463   2.574   2.977   2.894
   47EC       C  464   2.496   2.991   2.778
   47EC       C  465   2.357   3.003   2.833
   47EC       O  466   2.378   3.068   2.957
   47EC       H  467   2.528   3.081   2.725
   47EC       H  468   2.507   2.905   2.712
   47EC       H  469   2.311   2.906   2.851
   47EC       H  470   2.291   3.062   2.768
   48EC       O  471   2.909   3.355   2.483
   48EC       C  472   2.889   3.378   2.601
   48EC       O  473   2.963   3.463   2.677
   48EC       C  474   2.923   3.444   2.811
   48EC       C  475   2.783   3.393   2.797
   48EC       O  476   2.787   3.322   2.674
   48EC       H  477   2.990   3.370   2.857
   48EC       H  478   2.928   3.537   2.868
   48EC       H  479   2.711   3.475   2.788
   48EC       H  480   2.753   3.327   2.879
   49EC       O  481   0.587   3.865   0.505
   49EC       C  482   0.509   3.853   0.412
   49EC       O  483   0.441   3.957   0.354
   49EC       C  484   0.345   3.899   0.269
   49EC       C  485   0.404   3.766   0.236
   49EC       O  486   0.477   3.734   0.354
   49EC       H  487   0.251   3.890   0.324
   49EC       H  488   0.329   3.960   0.180
   49EC       H  489   0.474   3.772   0.152
   49EC       H  490   0.329   3.690   0.215
   50EC       O  491   1.142   0.659   2.753
   50EC       C  492   1.247   0.618   2.706
   50EC       O  493   1.370   0.641   2.759
   50EC       C  494   1.465   0.599   2.664
   50EC       C  495   1.389   0.496   2.585
   50EC       O  496   1.255   0.544   2.591
   50EC       H  497   1.493   0.686   2.603
   50EC       H  498   1.554   0.558   2.711
   50EC       H  499   1.394   0.397   2.631
   50EC       H  500   1.423   0.489   2.481
   51EC       O  501   2.272   2.705   2.769
   51EC       C  502   2.341   2.668   2.862
   51EC       O  503   2.450   2.587   2.851
   51EC       C  504   2.486   2.548   2.981
   51EC       C  505   2.432   2.659   3.065
   51EC       O  506   2.317   2.701   2.993
   51EC       H  507   2.438   2.452   3.003
   51EC       H  508   2.594   2.537   2.991
   51EC       H  509   2.502   2.743   3.072
   51EC       H  510   2.404   2.627   3.166
   52EC       O  511   1.262   1.233   2.456
   52EC       C  512   1.158   1.269   2.405
   52EC       O  513   1.117   1.234   2.280
   52EC       C  514   1.005   1.315   2.249
   52EC       C  515   0.951   1.348   2.384
   52EC       O  516   1.067   1.351   2.466
   52EC       H  517   1.041   1.403   2.196
   52EC       H  518   0.933   1.262   2.187
   52EC       H  519   0.883   1.271   2.422
   52EC       H  520   0.899   1.445   2.387
   53EC       O  521   2.764   3.608   2.471
   53EC       C  522   2.813   3.717   2.448
   53EC       O  523   2.942   3.738   2.407
   53EC       C  524   2.965   3.876   2.416
   53EC       C  525   2.828   3.934   2.402
   53EC       O  526   2.745   3.835   2.461
   53EC       H  527   3.010   3.897   2.514
   53EC       H  528   3.033   3.910   2.338
   53EC       H  529   2.800   3.947   2.297
   53EC       H  530   2.817   4.030   2.454
   54EC       O  531   2.262   4.029   0.524
   54EC       C  532   2.301   3.919   0.557
   54EC       O  533   2.228   3.804   0.547
   54EC       C  534   2.298   3.705   0.617
   54EC       C  535   2.440   3.753   0.611
   54EC       O  536   2.425   3.894   0.610
   54EC       H  537   2.260   3.701   0.720
   54EC       H  538   2.286   3.607   0.571
   54EC       H  539   2.490   3.722   0.519
   54EC       H  540   2.500   3.721   0.697
   55EC       O  541   1.818   1.627   1.412
   55EC       C  542   1.905   1.701   1.367
   55EC       O  543   2.003   1.662   1.281
   55EC       C  544   2.095   1.768   1.273
   55EC       C  545   2.011   1.887   1.308
   55EC       O  546   1.915   1.834   1.398
   55EC       H  547   2.174   1.751   1.347
   55EC       H  548   2.139   1.776   1.174
   55EC       H  549   1.959   1.927   1.221
   55EC       H  550   2.068   1.968   1.355
   56EC       O  551   3.763   2.751   1.090
   56EC       C  552   3.698   2.744   0.987
   56EC       O  553   3.573   2.794   0.970
   56EC       C  554   3.524   2.743   0.849
   56EC       C  555   3.649   2.715   0.772
   56EC       O  556   3.742   2.681   0.873
   56EC       H  557   3.467   2.652   0.870
   56EC       H  558   3.459   2.815   0.798
   56EC       H  559   3.685   2.804   0.719
   56EC       H  560   3.638   2.633   0.700
   57EC       O  561   2.254   2.584   3.519
   57EC       C  562   2.258   2.563   3.639
   57EC       O  563   2.349   2.482   3.701
   57EC       C  564   2.304   2.465   3.833
   57EC       C  565   2.222   2.588   3.857
   57EC       O  566   2.170   2.616   3.729
   57EC       H  567   2.244   2.373   3.838
   57EC       H  568   2.387   2.456   3.903
   57EC       H  569   2.284   2.672   3.890
   57EC       H  570   2.142   2.572   3.929
   58EC       O  571   0.854   0.875   1.461
   58EC       C  572   0.758   0.849   1.532
   58EC       O  573   0.762   0.770   1.642
   58EC       C  574   0.629   0.746   1.680
   58EC       C  575   0.557   0.865   1.625
   58EC       O  576   0.632   0.897   1.509
   58EC       H  577   0.596   0.652   1.633
   58EC       H  578   0.619   0.737   1.788
   58EC       H  579   0.560   0.950   1.694
   58EC       H  580   0.453   0.844   1.600
   59EC       O  581   3.319   0.429   0.696
   59EC       C  582   3.368   0.541   0.687
   59EC       O  583   3.301   0.658   0.707
   59EC       C  584   3.385   0.761   0.662
   59EC       C  585   3.522   0.702   0.676
   59EC       O  586   3.499   0.563   0.653
   59EC       H  587   3.360   0.783   0.557
   59EC       H  588   3.373   0.851   0.722
   59EC       H  589   3.562   0.714   0.777
   59EC       H  590   3.594   0.742   0.604
   60EC       O  591   0.301   2.866   0.395
   60EC       C  592   0.287   2.979   0.350
   60EC       O  593   0.386   3.051   0.290
   60EC       C  594   0.337   3.182   0.275
   60EC       C  595   0.189   3.162   0.270
   60EC       O  596   0.170   3.049   0.354
   60EC       H  597   0.368   3.241   0.362
   60EC       H  598   0.375   3.229   0.184
   60EC       H  599   0.154   3.138   0.170
   60EC       H  600   0.133   3.248   0.308
   61EC       O  601   3.745   0.577   2.811
   61EC       C  602   3.798   0.681   2.776
   61EC       O  603   3.758   0.758   2.672
   61EC       C  604   3.859   0.854   2.650
   61EC       C  605   3.924   0.864   2.784
   61EC       O  606   3.909   0.734   2.837
   61EC       H  607   3.927   0.815   2.574
   61EC       H  608   3.818   0.949   2.616
   61EC       H  609   3.872   0.935   2.849
   61EC       H  610   4.030   0.892   2.778
   62EC       O  611   2.669   2.653   2.284
   62EC       C  612   2.629   2.628   2.397
   62EC       O  613   2.647   2.509   2.461
   62EC       C  614   2.566   2.512   2.576
   62EC       C  615   2.552   2.658   2.604
   62EC       O  616   2.557   2.716   2.474
   62EC       H  617   2.470   2.465   2.551
   62EC       H  618   2.611   2.458   2.659
   62EC       H  619   2.635   2.697   2.663
   62EC       H  620   2.458   2.684   2.653
   63EC       O  621   3.162   2.940   2.766
   63EC       C  622   3.212   3.052   2.773
   63EC       O  623   3.342   3.080   2.744
   63EC       C  624   3.365   3.212   2.788
   63EC       C  625   3.229   3.273   2.784
   63EC       O  626   3.143   3.163   2.813
   63EC       H  627   3.406   3.207   2.890
   63EC       H  628   3.436   3.264   2.724
   63EC       H  629   3.204   3.312   2.685
   63EC       H  630   3.216   3.353   2.858
   64EC       O  631   0.575   0.230   2.451
   64EC       C  632   0.458   0.237   2.419
   64EC       O  633   0.356   0.171   2.480
   64EC       C  634   0.242   0.187   2.399
   64EC       C  635   0.270   0.314   2.327
   64EC       O  636   0.412   0.314   2.315
   64EC       H  637   0.236   0.101   2.331
   64EC       H  638   0.151   0.192   2.459
   64EC       H  639   0.240   0.402   2.384
   64EC       H  640   0.224   0.319   2.228
   65EC       O  641   1.729   0.682   1.698
   65EC       C  642   1.716   0.682   1.820
   65EC       O  643   1.812   0.642   1.908
   65EC       C  644   1.750   0.633   2.034
   65EC       C  645   1.636   0.729   2.021
   65EC       O  646   1.602   0.721   1.884
   65EC       H  647   1.716   0.530   2.049
   65EC       H  648   1.818   0.660   2.114
   65EC       H  649   1.665   0.832   2.044
   65EC       H  650   1.550   0.702   2.084
   66EC       O  651   0.821   1.246   1.249
   66EC       C  652   0.718   1.311   1.246
   66EC       O  653   0.593   1.258   1.249
   66EC       C  654   0.503   1.362   1.218
   66EC       C  655   0.579   1.484   1.261
   66EC       O  656   0.714   1.447   1.237
   66EC       H  657   0.484   1.360   1.111
   66EC       H  658   0.409   1.351   1.272
   66EC       H  659   0.566   1.505   1.367
   66EC       H  660   0.552   1.573   1.203
   67EC       O  661   3.744   3.095   1.536
   67EC       C  662   3.789   2.986   1.566
   67EC       O  663   3.803   2.941   1.694
   67EC       C  664   3.881   2.824   1.688
   67EC       C  665   3.853   2.774   1.549
   67EC       O  666   3.833   2.894   1.476
   67EC       H  667   3.986   2.851   1.702
   67EC       H  668   3.851   2.752   1.764
   67EC       H  669   3.763   2.713   1.544
   67EC       H  670   3.937   2.717   1.507
   68EC       O  671   1.772   3.345   2.651
   68EC       C  672   1.668   3.291   2.686
   68EC       O  673   1.575   3.346   2.769
   68EC       C  674   1.485   3.243   2.803
   68EC       C  675   1.496   3.150   2.686
   68EC       O  676   1.631   3.165   2.645
   68EC       H  677   1.519   3.197   2.896
   68EC       H  678   1.384   3.281   2.816
   68EC       H  679   1.430   3.179   2.604
   68EC       H  680   1.476   3.046   2.713
   69EC       O  681   2.831   0.249   3.242
   69EC       C  682   2.880   0.333   3.316
   69EC       O  683   2.852   0.466   3.311
   69EC       C  684   2.946   0.531   3.394
   69EC       C  685   2.984   0.423   3.491
   69EC       O  686   2.972   0.305   3.413
   69EC       H  687   3.030   0.563   3.332
   69EC       H  688   2.903   0.618   3.443
   69EC       H  689   2.915   0.418   3.575
   69EC       H  690   3.086   0.435   3.529
   70EC       O  691   0.476   1.816   2.203
   70EC       C  692   0.373   1.752   2.213
   70EC       O  693   0.269   1.757   2.125
   70EC       C  694   0.161   1.689   2.184
   70EC       C  695   0.229   1.594   2.277
   70EC       O  696   0.346   1.666   2.316
   70EC       H  697   0.099   1.762   2.237
   70EC       H  698   0.101   1.637   2.109
   70EC       H  699   0.259   1.502   2.228
   70EC       H  700   0.169   1.570   2.365
   71EC       O  701   0.231   2.850   3.537
   71EC       C  702   0.306   2.910   3.461
   71EC       O  703   0.367   2.855   3.353
   71EC       C  704   0.462   2.948   3.308
   71EC       C  705   0.406   3.078   3.356
   71EC       O  706   0.339   3.042   3.476
   71EC       H  707   0.558   2.925   3.354
   71EC       H  708   0.473   2.946   3.199
   71EC       H  709   0.333   3.120   3.286
   71EC       H  710   0.483   3.153   3.376
   72EC       O  711   2.788   1.855   0.595
   72EC       C  712   2.882   1.933   0.601
   72EC       O  713   2.885   2.045   0.678
   72EC       C  714   2.998   2.119   0.638
   72EC       C  715   3.088   2.013   0.582
   72EC       O  716   2.997   1.918   0.529
   72EC       H  717   2.967   2.191   0.562
   72EC       H  718   3.043   2.172   0.722
   72EC       H  719   3.149   1.965   0.660
   72EC       H  720   3.155   2.051   0.504
   73EC       O  721   2.060   0.134   1.876
   73EC       C  722   2.149   0.217   1.872
   73EC       O  723   2.204   0.279   1.981
   73EC       C  724   2.284   0.384   1.933
   73EC       C  725   2.320   0.338   1.795
   73EC       O  726   2.207   0.262   1.756
   73EC       H  727   2.224   0.475   1.931
   73EC       H  728   2.372   0.399   1.995
   73EC       H  729   2.408   0.272   1.795
   73EC       H  730   2.338   0.420   1.725
   74EC       O  731   0.538   3.071   1.965
   74EC       C  732   0.532   3.137   2.067
   74EC       O  733   0.636   3.158   2.153
   74EC       C  734   0.582   3.216   2.269
   74EC       C  735   0.458   3.282   2.219
   74EC       O  736   0.418   3.198   2.112
   74EC       H  737   0.560   3.135   2.341
   74EC       H  738   0.651   3.286   2.315
   74EC       H  739   0.478   3.382   2.180
   74EC       H  740   0.379   3.288   2.295
   75EC       O  741   0.746   1.468   1.021
   75EC       C  742   0.793   1.580   1.009
   75EC       O  743   0.855   1.627   0.897
   75EC       C  744   0.917   1.748   0.932
   75EC       C  745   0.833   1.795   1.047
   75EC       O  746   0.792   1.674   1.108
   75EC       H  747   1.020   1.728   0.962
   75EC       H  748   0.916   1.819   0.849
   75EC       H  749   0.745   1.851   1.014
   75EC       H  750   0.890   1.857   1.118
   76EC       O  751   2.067   1.412   0.924
   76EC       C  752   2.065   1.364   1.037
   76EC       O  753   2.155   1.392   1.135
   76EC       C  754   2.132   1.300   1.239
   76EC       C  755   1.988   1.264   1.220
   76EC       O  756   1.970   1.275   1.080
   76EC       H  757   2.199   1.214   1.224
   76EC       H  758   2.152   1.344   1.337
   76EC       H  759   1.921   1.335   1.270
   76EC       H  760   1.965   1.163   1.255
   77EC       O  761   1.026   0.687   0.425
   77EC       C  762   1.147   0.693   0.411
   77EC       O  763   1.228   0.587   0.385
   77EC       C  764   1.360   0.631   0.401
   77EC       C  765   1.350   0.778   0.374
   77EC       O  766   1.219   0.809   0.421
   77EC       H  767   1.392   0.609   0.503
   77EC       H  768   1.428   0.581   0.331
   77EC       H  769   1.356   0.801   0.268
   77EC       H  770   1.425   0.836   0.428
   78EC       O  771   2.814   3.960   3.597
   78EC       C  772   2.715   3.909   3.648
   78EC       O  773   2.717   3.818   3.748
   78EC       C  774   2.586   3.767   3.760
   78EC       C  775   2.502   3.879   3.706
   78EC       O  776   2.587   3.938   3.608
   78EC       H  777   2.578   3.677   3.699
   78EC       H  778   2.561   3.743   3.864
   78EC       H  779   2.479   3.954   3.783
   78EC       H  780   2.409   3.844   3.661
   79EC       O  781   0.457   1.785   3.524
   79EC       C  782   0.370   1.859   3.567
   79EC       O  783   0.247   1.818   3.610
   79EC       C  784   0.170   1.934   3.628
   79EC       C  785   0.273   2.040   3.654
   79EC       O  786   0.384   1.995   3.578
   79EC       H  787   0.114   1.953   3.535
   79EC       H  788   0.100   1.924   3.710
   79EC       H  789   0.301   2.044   3.759
   79EC       H  790   0.241   2.139   3.621
   80EC       O  791   0.150   2.821   2.980
   80EC       C  792   0.197   2.728   3.043
   80EC       O  793   0.135   2.608   3.061
   80EC       C  794   0.208   2.538   3.159
   80EC       C  795   0.345   2.597   3.146
   80EC       O  796   0.318   2.731   3.107
   80EC       H  797   0.163   2.558   3.257
   80EC       H  798   0.208   2.431   3.140
   80EC       H  799   0.404   2.549   3.069
   80EC       H  800   0.401   2.596   3.240
   81EC       O  801   2.946   2.155   2.680
   81EC       C  802   3.028   2.213   2.749
   81EC       O  803   3.055   2.346   2.743
   81EC       C  804   3.171   2.367   2.819
   81EC       C  805   3.169   2.253   2.916
   81EC       O  806   3.106   2.150   2.842
   81EC       H  807   3.258   2.363   2.752
   81EC       H  808   3.169   2.464   2.870
   81EC       H  809   3.108   2.275   3.004
   81EC       H  810   3.269   2.223   2.948
   82EC       O  811   3.466   0.757   2.095
   82EC       C  812   3.509   0.812   2.196
   82EC       O  813   3.588   0.753   2.290
   82EC       C  814   3.594   0.841   2.399
   82EC       C  815   3.568   0.974   2.336
   82EC       O  816   3.481   0.942   2.228
   82EC       H  817   3.515   0.813   2.470
   82EC       H  818   3.691   0.837   2.449
   82EC       H  819   3.659   1.019   2.297
   82EC       H  820   3.520   1.045   2.405
   83EC       O  821   3.586   0.638   3.544
   83EC       C  822   3.525   0.724   3.482
   83EC       O  823   3.398   0.710   3.434
   83EC       C  824   3.374   0.820   3.350
   83EC       C  825   3.467   0.924   3.403
   83EC       O  826   3.577   0.847   3.451
   83EC       H  827   3.399   0.790   3.247
   83EC       H  828   3.270   0.852   3.354
   83EC       H  829   3.424   0.980   3.486
   83EC       H  830   3.501   0.994   3.326
   84EC       O  831   1.062   0.950   0.511
   84EC       C  832   0.941   0.940   0.499
   84EC       O  833   0.877   0.849   0.419
   84EC       C  834   0.742   0.887   0.414
   84EC       C  835   0.724   0.962   0.542
   84EC       O  836   0.851   1.020   0.564
   84EC       H  837   0.727   0.951   0.326
   84EC       H  838   0.677   0.800   0.407
   84EC       H  839   0.701   0.895   0.626
   84EC       H  840   0.646   1.039   0.536
   85EC       O  841   1.294   3.331   3.609
   85EC       C  842   1.410   3.333   3.571
   85EC       O  843   1.513   3.268   3.633
   85EC       C  844   1.631   3.315   3.574
   85EC       C  845   1.586   3.357   3.437
   85EC       O  846   1.453   3.401   3.460
   85EC       H  847   1.669   3.399   3.633
   85EC       H  848   1.707   3.237   3.569
   85EC       H  849   1.585   3.274   3.367
   85EC       H  850   1.647   3.438   3.395
   86EC       O  851   1.631   0.101   2.547
   86EC       C  852   1.729   0.160   2.591
   86EC       O  853   1.726   0.283   2.649
   86EC       C  854   1.860   0.325   2.661
   86EC       C  855   1.935   0.196   2.667
   86EC       O  856   1.856   0.110   2.586
   86EC       H  857   1.886   0.385   2.573
   86EC       H  858   1.874   0.385   2.751
   86EC       H  859   1.939   0.155   2.768
   86EC       H  860   2.037   0.204   2.627
   87EC       O  861   2.785   1.312   2.785
   87EC       C  862   2.804   1.432   2.777
   87EC       O  863   2.705   1.526   2.768
   87EC       C  864   2.768   1.648   2.736
   87EC       C  865   2.906   1.630   2.789
   87EC       O  866   2.928   1.490   2.774
   87EC       H  867   2.766   1.660   2.627
   87EC       H  868   2.716   1.733   2.782
   87EC       H  869   2.913   1.655   2.895
   87EC       H  870   2.981   1.687   2.733
   88EC       O  871   3.980   1.355   0.353
   88EC       C  872   3.872   1.299   0.336
   88EC       O  873   3.853   1.165   0.339
   88EC       C  874   3.723   1.141   0.290
   88EC       C  875   3.652   1.269   0.320
   88EC       O  876   3.756   1.366   0.309
   88EC       H  877   3.730   1.122   0.182
   88EC       H  878   3.676   1.056   0.339
   88EC       H  879   3.612   1.271   0.422
   88EC       H  880   3.571   1.291   0.249
   89EC       O  881   3.049   3.066   0.449
   89EC       C  882   3.099   2.987   0.528
   89EC       O  883   3.179   3.022   0.633
   89EC       C  884   3.234   2.903   0.683
   89EC       C  885   3.133   2.800   0.643
   89EC       O  886   3.081   2.851   0.522
   89EC       H  887   3.331   2.886   0.634
   89EC       H  888   3.248   2.907   0.791
   89EC       H  889   3.052   2.791   0.716
   89EC       H  890   3.177   2.701   0.627
   90EC       O  891   1.660   0.700   1.440
   90EC       C  892   1.741   0.789   1.423
   90EC       O  893   1.718   0.921   1.449
   90EC       C  894   1.826   0.993   1.393
   90EC       C  895   1.936   0.892   1.392
   90EC       O  896   1.867   0.769   1.373
   90EC       H  897   1.798   1.024   1.292
   90EC       H  898   1.851   1.080   1.453
   90EC       H  899   1.990   0.888   1.488
   90EC       H  900   2.009   0.908   1.312
   91EC       O  901   3.179   1.457   1.904
   91EC       C  902   3.103   1.546   1.938
   91EC       O  903   3.138   1.677   1.955
   91EC       C  904   3.030   1.740   2.018
   91EC       C  905   2.913   1.656   1.978
   91EC       O  906   2.970   1.526   1.966
   91EC       H  907   3.047   1.738   2.127
   91EC       H  908   3.020   1.844   1.986
   91EC       H  909   2.873   1.686   1.880
   91EC       H  910   2.832   1.656   2.051
   92EC       O  911   2.455   1.540   3.697
   92EC       C  912   2.557   1.474   3.689
   92EC       O  913   2.562   1.338   3.677
   92EC       C  914   2.696   1.300   3.695
   92EC       C  915   2.771   1.423   3.654
   92EC       O  916   2.683   1.528   3.691
   92EC       H  917   2.712   1.276   3.801
   92EC       H  918   2.722   1.214   3.634
   92EC       H  919   2.788   1.427   3.546
   92EC       H  920   2.868   1.434   3.706
   93EC       O  921   1.038   1.446   1.580
   93EC       C  922   0.985   1.468   1.688
   93EC       O  923   0.996   1.388   1.797
   93EC       C  924   0.903   1.434   1.892
   93EC       C  925   0.887   1.578   1.855
   93EC       O  926   0.907   1.577   1.714
   93EC       H  927   0.810   1.378   1.879
   93EC       H  928   0.939   1.422   1.994
   93EC       H  929   0.964   1.641   1.901
   93EC       H  930   0.788   1.619   1.879
   94EC       O  931   4.011   2.018   2.042
   94EC       C  932   3.989   1.904   2.005
   94EC       O  933   4.030   1.852   1.886
   94EC       C  934   3.965   1.729   1.870
   94EC       C  935   3.937   1.688   2.012
   94EC       O  936   3.919   1.812   2.078
   94EC       H  937   3.873   1.745   1.813
   94EC       H  938   4.027   1.657   1.818
   94EC       H  939   4.022   1.636   2.057
   94EC       H  940   3.848   1.625   2.021
   95EC       O  941   3.939   3.010   2.635
   95EC       C  942   3.925   2.892   2.661
   95EC       O  943   3.809   2.823   2.645
   95EC       C  944   3.827   2.699   2.710
   95EC       C  945   3.975   2.680   2.705
   95EC       O  946   4.024   2.813   2.712
   95EC       H  947   3.789   2.707   2.812
   95EC       H  948   3.773   2.619   2.658
   95EC       H  949   4.008   2.635   2.611
   95EC       H  950   4.013   2.620   2.788
   96EC       O  951   3.713   1.405   2.369
   96EC       C  952   3.646   1.419   2.470
   96EC       O  953   3.676   1.503   2.573
   96EC       C  954   3.589   1.471   2.678
   96EC       C  955   3.471   1.411   2.608
   96EC       O  956   3.530   1.349   2.494
   96EC       H  957   3.639   1.399   2.744
   96EC       H  958   3.562   1.559   2.736
   96EC       H  959   3.401   1.488   2.574
   96EC       H  960   3.418   1.337   2.669
   97EC       O  961   2.402   2.777   0.296
   97EC       C  962   2.355   2.758   0.407
   97EC       O  963   2.252   2.673   0.435
   97EC       C  964   2.214   2.698   0.568
   97EC       C  965   2.339   2.753   0.629
   97EC       O  966   2.401   2.820   0.521
   97EC       H  967   2.132   2.771   0.568
   97EC       H  968   2.180   2.607   0.618
   97EC       H  969   2.406   2.674   0.665
   97EC       H  970   2.319   2.823   0.712
   98EC       O  971   3.472   0.464   2.375
   98EC       C  972   3.373   0.522   2.417
   98EC       O  973   3.260   0.461   2.462
   98EC       C  974   3.163   0.561   2.476
   98EC       C  975   3.244   0.685   2.498
   98EC       O  976   3.362   0.659   2.422
   98EC       H  977   3.104   0.566   2.384
   98EC       H  978   3.096   0.540   2.560
   98EC       H  979   3.272   0.698   2.603
   98EC       H  980   3.195   0.775   2.462
   99EC       O  981   2.083   1.291   0.387
   99EC       C  982   1.969   1.315   0.423
   99EC       O  983   1.910   1.438   0.420
   99EC       C  984   1.790   1.427   0.492
   99EC       C  985   1.756   1.282   0.478
   99EC       O  986   1.883   1.220   0.472
   99EC       H  987   1.808   1.456   0.596
   99EC       H  988   1.713   1.491   0.450
   99EC       H  989   1.702   1.261   0.386
   99EC       H  990   1.698   1.243   0.563
  100EC       O  991   3.619   3.519   1.551
  100EC       C  992   3.705   3.604   1.569
  100EC       O  993   3.738   3.658   1.689
  100EC       C  994   3.822   3.767   1.664
  100EC       C  995   3.884   3.731   1.532
  100EC       O  996   3.781   3.657   1.468
  100EC       H  997   3.761   3.857   1.658
  100EC       H  998   3.897   3.779   1.743
  100EC       H  999   3.972   3.667   1.544
  100EC       H 1000   3.912   3.819   1.473
  101EC       O 1001   4.030   1.687   1.256
  101EC       C 1002   3.948   1.609   1.301
  101EC       O 1003   3.927   1.483   1.254
  101EC       C 1004   3.809   1.436   1.315
  101EC       C 1005   3.803   1.515   1.442
  101EC       O 1006   3.864   1.638   1.405
  101EC       H 1007   3.725   1.457   1.249
  101EC       H 1008   3.814   1.329   1.334
  101EC       H 1009   3.862   1.470   1.522
  101EC       H 1010   3.701   1.532   1.477
  102EC       O 1011   3.135   0.233   3.047
  102EC       C 1012   3.027   0.280   3.016
  102EC       O 1013   3.008   0.403   2.961
  102EC       C 1014   2.870   0.428   2.963
  102EC       C 1015   2.811   0.290   2.963
  102EC       O 1016   2.908   0.214   3.034
  102EC       H 1017   2.846   0.483   3.055
  102EC       H 1018   2.838   0.486   2.877
  102EC       H 1019   2.801   0.250   2.862
  102EC       H 1020   2.714   0.285   3.014
  103EC       O 1021   1.899   0.674   2.752
  103EC       C 1022   1.845   0.783   2.750
  103EC       O 1023   1.886   0.891   2.822
  103EC       C 1024   1.785   0.988   2.811
  103EC       C 1025   1.719   0.953   2.682
  103EC       O 1026   1.734   0.812   2.675
  103EC       H 1027   1.717   0.977   2.897
  103EC       H 1028   1.825   1.089   2.811
  103EC       H 1029   1.770   0.998   2.596
  103EC       H 1030   1.613   0.981   2.679
  104EC       O 1031   0.317   4.020   0.665
  104EC       C 1032   0.394   3.987   0.753
  104EC       O 1033   0.523   4.030   0.765
  104EC       C 1034   0.584   3.950   0.864
  104EC       C 1035   0.468   3.906   0.947
  104EC       O 1036   0.362   3.899   0.853
  104EC       H 1037   0.634   3.866   0.814
  104EC       H 1038   0.657   4.007   0.921
  104EC       H 1039   0.442   3.980   1.024
  104EC       H 1040   0.484   3.809   0.995
  105EC       O 1041   3.779   3.559   3.024
  105EC       C 1042   3.720   3.502   3.114
  105EC       O 1043   3.613   3.554   3.182
  105EC       C 1044   3.591   3.471   3.293
  105EC       C 1045   3.648   3.340   3.248
  105EC       O 1046   3.754   3.379   3.162
  105EC       H 1047   3.645   3.513   3.379
  105EC       H 1048   3.485   3.464   3.317
  105EC       H 1049   3.575   3.281   3.191
  105EC       H 1050   3.685   3.279   3.331
  106EC       O 1051   0.601   1.194   0.787
  106EC       C 1052   0.519   1.107   0.765
  106EC       O 1053   0.400   1.126   0.702
  106EC       C 1054   0.325   1.008   0.718
  106EC       C 1055   0.431   0.904   0.736
  106EC       O 1056   0.535   0.976   0.802
  106EC       H 1057   0.261   1.019   0.807
  106EC       H 1058   0.262   0.988   0.631
  106EC       H 1059   0.468   0.866   0.641
  106EC       H 1060   0.398   0.820   0.798
  107EC       O 1061   1.174   2.417   3.628
  107EC       C 1062   1.243   2.379   3.535
  107EC       O 1063   1.377   2.402   3.523
  107EC       C 1064   1.413   2.365   3.392
  107EC       C 1065   1.309   2.264   3.356
  107EC       O 1066   1.195   2.310   3.427
  107EC       H 1067   1.409   2.454   3.329
  107EC       H 1068   1.514   2.323   3.389
  107EC       H 1069   1.335   2.164   3.390
  107EC       H 1070   1.288   2.261   3.248
  108EC       O 1071   3.162   1.913   2.210
  108EC       C 1072   3.234   1.921   2.308
  108EC       O 1073   3.277   2.038   2.363
  108EC       C 1074   3.377   2.005   2.456
  108EC       C 1075   3.340   1.865   2.495
  108EC       O 1076   3.283   1.813   2.376
  108EC       H 1077   3.474   2.011   2.407
  108EC       H 1078   3.376   2.073   2.542
  108EC       H 1079   3.266   1.862   2.575
  108EC       H 1080   3.427   1.805   2.525
  109EC       O 1081   1.676   2.184   3.498
  109EC       C 1082   1.610   2.238   3.585
  109EC       O 1083   1.584   2.372   3.592
  109EC       C 1084   1.528   2.396   3.719
  109EC       C 1085   1.468   2.264   3.755
  109EC       O 1086   1.555   2.171   3.691
  109EC       H 1087   1.609   2.425   3.787
  109EC       H 1088   1.454   2.476   3.716
  109EC       H 1089   1.368   2.252   3.714
  109EC       H 1090   1.466   2.246   3.863
  110EC       O 1091   2.383   0.692   3.916
  110EC       C 1092   2.272   0.679   3.866
  110EC       O 1093   2.225   0.753   3.761
  110EC       C 1094   2.088   0.726   3.751
  110EC       C 1095   2.076   0.589   3.811
  110EC       O 1096   2.179   0.589   3.909
  110EC       H 1097   2.033   0.801   3.808
  110EC       H 1098   2.054   0.728   3.647
  110EC       H 1099   2.097   0.510   3.738
  110EC       H 1100   1.979   0.571   3.857
  111EC       O 1101   2.106   2.953   1.863
  111EC       C 1102   2.224   2.939   1.835
  111EC       O 1103   2.315   3.040   1.826
  111EC       C 1104   2.431   2.986   1.768
  111EC       C 1105   2.421   2.841   1.804
  111EC       O 1106   2.281   2.818   1.806
  111EC       H 1107   2.426   3.002   1.660
  111EC       H 1108   2.521   3.032   1.807
  111EC       H 1109   2.463   2.820   1.903
  111EC       H 1110   2.470   2.775   1.730
  112EC       O 1111   3.381   0.542   2.174
  112EC       C 1112   3.271   0.595   2.163
  112EC       O 1113   3.251   0.728   2.142
  112EC       C 1114   3.113   0.751   2.161
  112EC       C 1115   3.052   0.618   2.131
  112EC       O 1116   3.153   0.527   2.173
  112EC       H 1117   3.097   0.782   2.265
  112EC       H 1118   3.077   0.830   2.094
  112EC       H 1119   3.034   0.604   2.024
  112EC       H 1120   2.959   0.600   2.185
  113EC       O 1121   0.480   2.689   2.553
  113EC       C 1122   0.587   2.746   2.537
  113EC       O 1123   0.601   2.875   2.498
  113EC       C 1124   0.737   2.894   2.468
  113EC       C 1125   0.805   2.790   2.551
  113EC       O 1126   0.709   2.686   2.556
  113EC       H 1127   0.752   2.877   2.360
  113EC       H 1128   0.770   2.995   2.493
  113EC       H 1129   0.823   2.825   2.653
  113EC       H 1130   0.899   2.755   2.508
  114EC       O 1131   1.955   0.571   0.799
  114EC       C 1132   1.929   0.679   0.848
  114EC       O 1133   1.981   0.726   0.965
  114EC       C 1134   1.907   0.841   0.999
  114EC       C 1135   1.857   0.889   0.866
  114EC       O 1136   1.841   0.769   0.793
  114EC       H 1137   1.825   0.811   1.066
  114EC       H 1138   1.969   0.915   1.049
  114EC       H 1139   1.931   0.952   0.815
  114EC       H 1140   1.762   0.943   0.873
  115EC       O 1141   2.094   3.247   2.749
  115EC       C 1142   2.193   3.238   2.678
  115EC       O 1143   2.200   3.167   2.562
  115EC       C 1144   2.335   3.160   2.526
  115EC       C 1145   2.393   3.282   2.591
  115EC       O 1146   2.313   3.296   2.707
  115EC       H 1147   2.378   3.068   2.566
  115EC       H 1148   2.348   3.161   2.417
  115EC       H 1149   2.381   3.371   2.528
  115EC       H 1150   2.499   3.270   2.617
  116EC       O 1151   0.859   1.141   3.552
  116EC       C 1152   0.781   1.231   3.576
  116EC       O 1153   0.796   1.360   3.536
  116EC       C 1154   0.699   1.436   3.604
  116EC       C 1155   0.591   1.335   3.630
  116EC       O 1156   0.665   1.214   3.647
  116EC       H 1157   0.742   1.475   3.696
  116EC       H 1158   0.663   1.519   3.542
  116EC       H 1159   0.523   1.324   3.546
  116EC       H 1160   0.533   1.357   3.720
  117EC       O 1161   1.445   3.596   1.943
  117EC       C 1162   1.381   3.592   2.047
  117EC       O 1163   1.374   3.484   2.130
  117EC       C 1164   1.273   3.511   2.223
  117EC       C 1165   1.270   3.661   2.227
  117EC       O 1166   1.307   3.696   2.094
  117EC       H 1167   1.179   3.469   2.186
  117EC       H 1168   1.296   3.468   2.321
  117EC       H 1169   1.344   3.702   2.296
  117EC       H 1170   1.171   3.701   2.252
  118EC       O 1171   2.868   3.207   3.113
  118EC       C 1172   2.891   3.090   3.089
  118EC       O 1173   2.796   2.992   3.079
  118EC       C 1174   2.864   2.869   3.075
  118EC       C 1175   2.998   2.908   3.019
  118EC       O 1176   3.016   3.040   3.068
  118EC       H 1177   2.872   2.830   3.177
  118EC       H 1178   2.813   2.797   3.012
  118EC       H 1179   2.998   2.910   2.910
  118EC       H 1180   3.079   2.842   3.053
  119EC       O 1181   3.540   2.644   2.185
  119EC       C 1182   3.566   2.536   2.235
  119EC       O 1183   3.477   2.434   2.250
  119EC       C 1184   3.538   2.338   2.332
  119EC       C 1185   3.684   2.362   2.309
  119EC       O 1186   3.689   2.502   2.284
  119EC       H 1187   3.509   2.357   2.436
  119EC       H 1188   3.508   2.237   2.305
  119EC       H 1189   3.721   2.309   2.221
  119EC       H 1190   3.746   2.336   2.395
  120EC       O 1191   2.777   0.434   2.288
  120EC       C 1192   2.678   0.362   2.286
  120EC       O 1193   2.676   0.231   2.321
  120EC       C 1194   2.551   0.180   2.282
  120EC       C 1195   2.464   0.302   2.283
  120EC       O 1196   2.554   0.405   2.247
  120EC       H 1197   2.561   0.137   2.182
  120EC       H 1198   2.516   0.103   2.351
  120EC       H 1199   2.423   0.322   2.382
  120EC       H 1200   2.382   0.296   2.211
  121EC       O 1201   1.519   1.106   0.667
  121EC       C 1202   1.504   0.987   0.689
  121EC       O 1203   1.604   0.901   0.725
  121EC       C 1204   1.551   0.771   0.717
  121EC       C 1205   1.404   0.794   0.738
  121EC       O 1206   1.384   0.922   0.680
  121EC       H 1207   1.573   0.730   0.618
  121EC       H 1208   1.594   0.706   0.793
  121EC       H 1209   1.378   0.797   0.843
  121EC       H 1210   1.342   0.719   0.687
  122EC       O 1211   1.079   0.147   2.169
  122EC       C 1212   1.047   0.246   2.232
  122EC       O 1213   1.081   0.374   2.199
  122EC       C 1214   1.047   0.454   2.309
  122EC       C 1215   0.938   0.376   2.375
  122EC       O 1216   0.973   0.242   2.347
  122EC       H 1217   1.135   0.465   2.373
  122EC       H 1218   1.014   0.553   2.277
  122EC       H 1219   0.840   0.397   2.331
  122EC       H 1220   0.932   0.393   2.483
  123EC       O 1221   0.286   0.606   3.686
  123EC       C 1222   0.278   0.705   3.756
  123EC       O 1223   0.372   0.803   3.764
  123EC       C 1224   0.338   0.885   3.873
  123EC       C 1225   0.190   0.865   3.883
  123EC       O 1226   0.172   0.731   3.839
  123EC       H 1227   0.391   0.849   3.962
  123EC       H 1228   0.364   0.989   3.855
  123EC       H 1229   0.134   0.932   3.817
  123EC       H 1230   0.152   0.878   3.985
  124EC       O 1231   0.775   2.659   1.755
  124EC       C 1232   0.718   2.551   1.751
  124EC       O 1233   0.706   2.466   1.856
  124EC       C 1234   0.657   2.344   1.805
  124EC       C 1235   0.583   2.388   1.682
  124EC       O 1236   0.658   2.501   1.639
  124EC       H 1237   0.742   2.279   1.782
  124EC       H 1238   0.591   2.294   1.876
  124EC       H 1239   0.481   2.419   1.704
  124EC       H 1240   0.581   2.311   1.604
  125EC       O 1241   2.544   2.191   2.806
  125EC       C 1242   2.588   2.205   2.694
  125EC       O 1243   2.716   2.177   2.656
  125EC       C 1244   2.733   2.230   2.527
  125EC       C 1245   2.594   2.231   2.473
  125EC       O 1246   2.514   2.253   2.588
  125EC       H 1247   2.775   2.331   2.536
  125EC       H 1248   2.800   2.169   2.467
  125EC       H 1249   2.566   2.135   2.428
  125EC       H 1250   2.577   2.310   2.399
  126EC       O 1251   1.084   2.851   3.069
  126EC       C 1252   1.039   2.898   3.172
  126EC       O 1253   0.909   2.891   3.211
  126EC       C 1254   0.894   2.978   3.321
  126EC       C 1255   1.032   2.982   3.378
  126EC       O 1256   1.115   2.966   3.264
  126EC       H 1257   0.861   3.075   3.284
  126EC       H 1258   0.821   2.940   3.392
  126EC       H 1259   1.051   2.899   3.447
  126EC       H 1260   1.055   3.077   3.429
  127EC       O 1261   3.101   1.543   2.920
  127EC       C 1262   3.098   1.422   2.924
  127EC       O 1263   2.984   1.347   2.931
  127EC       C 1264   3.024   1.215   2.958
  127EC       C 1265   3.164   1.210   2.905
  127EC       O 1266   3.210   1.343   2.924
  127EC       H 1267   3.021   1.200   3.067
  127EC       H 1268   2.959   1.142   2.910
  127EC       H 1269   3.166   1.187   2.798
  127EC       H 1270   3.228   1.138   2.958
  128EC       O 1271   1.269   3.780   1.039
  128EC       C 1272   1.388   3.792   1.061
  128EC       O 1273   1.442   3.864   1.164
  128EC       C 1274   1.580   3.873   1.139
  128EC       C 1275   1.607   3.753   1.054
  128EC       O 1276   1.486   3.736   0.983
  128EC       H 1277   1.599   3.967   1.085
  128EC       H 1278   1.638   3.873   1.231
  128EC       H 1279   1.626   3.664   1.115
  128EC       H 1280   1.691   3.767   0.985
  129EC       O 1281   3.266   2.417   2.187
  129EC       C 1282   3.202   2.371   2.280
  129EC       O 1283   3.123   2.445   2.363
  129EC       C 1284   3.087   2.361   2.470
  129EC       C 1285   3.096   2.224   2.409
  129EC       O 1286   3.201   2.239   2.314
  129EC       H 1287   3.159   2.375   2.551
  129EC       H 1288   2.986   2.383   2.506
  129EC       H 1289   3.005   2.196   2.357
  129EC       H 1290   3.121   2.147   2.483
  130EC       O 1291   1.658   1.315   2.010
  130EC       C 1292   1.685   1.433   2.018
  130EC       O 1293   1.806   1.488   1.988
  130EC       C 1294   1.803   1.621   2.034
  130EC       C 1295   1.657   1.654   2.031
  130EC       O 1296   1.596   1.529   2.060
  130EC       H 1297   1.844   1.624   2.135
  130EC       H 1298   1.861   1.687   1.969
  130EC       H 1299   1.624   1.688   1.933
  130EC       H 1300   1.628   1.729   2.106
  131EC       O 1301   3.771   2.980   3.612
  131EC       C 1302   3.738   3.097   3.618
  131EC       O 1303   3.624   3.143   3.678
  131EC       C 1304   3.611   3.278   3.642
  131EC       C 1305   3.752   3.319   3.613
  131EC       O 1306   3.810   3.200   3.564
  131EC       H 1307   3.547   3.284   3.553
  131EC       H 1308   3.566   3.337   3.722
  131EC       H 1309   3.805   3.350   3.704
  131EC       H 1310   3.759   3.399   3.539
  132EC       O 1311   0.893   3.229   2.010
  132EC       C 1312   0.949   3.174   2.104
  132EC       O 1313   1.075   3.122   2.099
  132EC       C 1314   1.092   3.047   2.217
  132EC       C 1315   0.996   3.112   2.312
  132EC       O 1316   0.891   3.156   2.227
  132EC       H 1317   1.066   2.943   2.196
  132EC       H 1318   1.195   3.052   2.253
  132EC       H 1319   1.040   3.199   2.362
  132EC       H 1320   0.958   3.043   2.388
  133EC       O 1321   0.168   2.740   3.789
  133EC       C 1322   0.288   2.740   3.810
  133EC       O 1323   0.363   2.628   3.831
  133EC       C 1324   0.489   2.671   3.875
  133EC       C 1325   0.500   2.808   3.816
  133EC       O 1326   0.365   2.853   3.815
  133EC       H 1327   0.489   2.673   3.985
  133EC       H 1328   0.569   2.605   3.841
  133EC       H 1329   0.537   2.806   3.714
  133EC       H 1330   0.562   2.876   3.876
  134EC       O 1331   3.080   1.421   2.561
  134EC       C 1332   2.979   1.461   2.505
  134EC       O 1333   2.978   1.536   2.391
  134EC       C 1334   2.846   1.582   2.374
  134EC       C 1335   2.765   1.479   2.446
  134EC       O 1336   2.852   1.438   2.550
  134EC       H 1337   2.838   1.681   2.420
  134EC       H 1338   2.820   1.589   2.268
  134EC       H 1339   2.742   1.393   2.382
  134EC       H 1340   2.672   1.519   2.487
  135EC       O 1341   3.029   0.755   0.220
  135EC       C 1342   2.926   0.821   0.219
  135EC       O 1343   2.921   0.956   0.201
  135EC       C 1344   2.789   0.996   0.231
  135EC       C 1345   2.710   0.871   0.204
  135EC       O 1346   2.801   0.768   0.237
  135EC       H 1347   2.785   1.026   0.336
  135EC       H 1348   2.757   1.079   0.168
  135EC       H 1349   2.682   0.862   0.099
  135EC       H 1350   2.620   0.864   0.266
  136EC       O 1351   0.243   1.219   2.055
  136EC       C 1352   0.267   1.330   2.010
  136EC       O 1353   0.173   1.417   1.964
  136EC       C 1354   0.242   1.520   1.899
  136EC       C 1355   0.376   1.518   1.966
  136EC       O 1356   0.393   1.381   1.998
  136EC       H 1357   0.249   1.496   1.792
  136EC       H 1358   0.192   1.616   1.910
  136EC       H 1359   0.377   1.577   2.058
  136EC       H 1360   0.457   1.553   1.900
  137DMC      C 1361   1.626   0.616   3.550
  137DMC      O 1362   1.691   0.540   3.652
  137DMC      C 1363   1.607   0.497   3.750
  137DMC      O 1364   1.487   0.520   3.756
  137DMC      O 1365   1.680   0.426   3.840
  137DMC      C 1366   1.604   0.376   3.948
  137DMC      H 1367   1.582   0.708   3.592
  137DMC      H 1368   1.701   0.645   3.476
  137DMC      H 1369   1.550   0.557   3.500
  137DMC      H 1370   1.671   0.320   4.015
  137DMC      H 1371   1.560   0.458   4.006
  137DMC      H 1372   1.526   0.308   3.913
  138DMC      C 1373   2.256   2.639   2.432
  138DMC      O 1374   2.329   2.757   2.394
  138DMC      C 1375   2.284   2.813   2.279
  138DMC      O 1376   2.192   2.772   2.210
  138DMC      O 1377   2.360   2.923   2.254
  138DMC      C 1378   2.324   2.992   2.136
  138DMC      H 1379   2.265   2.561   2.356
  138DMC      H 1380   2.299   2.601   2.526
  138DMC      H 1381   2.151   2.663   2.450
  138DMC      H 1382   2.391   3.078   2.124
  138DMC      H 1383   2.337   2.927   2.048
  138DMC      H 1384   2.222   3.029   2.142
  139DMC      C 1385   2.561   2.488   3.468
  139DMC      O 1386   2.660   2.591   3.450
  139DMC      C 1387   2.613   2.701   3.386
  139DMC      O 1388   2.499   2.716   3.343
  139DMC      O 1389   2.715   2.790   3.375
  139DMC      C 1390   2.679   2.910   3.309
  139DMC      H 1391   2.525   2.452   3.371
  139DMC      H 1392   2.608   2.405   3.521
  139DMC      H 1393   2.478   2.525   3.528
  139DMC      H 1394   2.767   2.975   3.305
  139DMC      H 1395   2.648   2.889   3.205
  139DMC      H 1396   2.600   2.962   3.363
  140DMC      C 1397   2.386   3.605   0.295
  140DMC      O 1398   2.327   3.721   0.353
  140DMC      C 1399   2.223   3.771   0.282
  140DMC      O 1400   2.180   3.726   0.177
  140DMC      O 1401   2.176   3.881   0.347
  140DMC      C 1402   2.066   3.943   0.282
  140DMC      H 1403   2.427   3.628   0.196
  140DMC      H 1404   2.468   3.572   0.360
  140DMC      H 1405   2.314   3.524   0.288
  140DMC      H 1406   2.036   4.030   0.342
  140DMC      H 1407   2.096   3.979   0.182
  140DMC      H 1408   1.982   3.874   0.275
  141DMC      C 1409   3.642   1.193   3.146
  141DMC      O 1410   3.729   1.086   3.109
  141DMC      C 1411   3.759   1.003   3.211
  141DMC      O 1412   3.720   1.013   3.326
  141DMC      O 1413   3.842   0.905   3.163
  141DMC      C 1414   3.882   0.811   3.261
  141DMC      H 1415   3.689   1.257   3.223
  141DMC      H 1416   3.623   1.255   3.058
  141DMC      H 1417   3.546   1.155   3.182
  141DMC      H 1418   3.948   0.738   3.213
  141DMC      H 1419   3.938   0.860   3.342
  141DMC      H 1420   3.795   0.758   3.302
  142DMC      C 1421   3.284   3.570   2.556
  142DMC      O 1422   3.389   3.510   2.633
  142DMC      C 1423   3.368   3.514   2.767
  142DMC      O 1424   3.272   3.563   2.823
  142DMC      O 1425   3.474   3.454   2.828
  142DMC      C 1426   3.465   3.452   2.969
  142DMC      H 1427   3.274   3.676   2.581
  142DMC      H 1428   3.310   3.561   2.450
  142DMC      H 1429   3.190   3.517   2.573
  142DMC      H 1430   3.554   3.403   3.009
  142DMC      H 1431   3.462   3.554   3.009
  142DMC      H 1432   3.377   3.395   3.001
  143DMC      C 1433   1.997   1.774   0.177
  143DMC      O 1434   1.943   1.771   0.310
  143DMC      C 1435   1.819   1.824   0.319
  143DMC      O 1436   1.754   1.872   0.228
  143DMC      O 1437   1.779   1.815   0.449
  143DMC      C 1438   1.649   1.867   0.473
  143DMC      H 1439   2.006   1.877   0.141
  143DMC      H 1440   2.097   1.730   0.179
  143DMC      H 1441   1.935   1.716   0.109
  143DMC      H 1442   1.627   1.856   0.580
  143DMC      H 1443   1.646   1.975   0.449
  143DMC      H 1444   1.574   1.812   0.416
  144DMC      C 1445   1.176   1.762   2.212
  144DMC      O 1446   1.086   1.832   2.300
  144DMC      C 1447   1.011   1.925   2.237
  144DMC      O 1448   1.015   1.953   2.118
  144DMC      O 1449   0.930   1.983   2.330
  144DMC      C 1450   0.845   2.084   2.277
  144DMC      H 1451   1.247   1.832   2.167
  144DMC      H 1452   1.231   1.689   2.272
  144DMC      H 1453   1.121   1.709   2.135
  144DMC      H 1454   0.785   2.125   2.359
  144DMC      H 1455   0.905   2.166   2.235
  144DMC      H 1456   0.778   2.043   2.202
  145DMC      C 1457   3.039   0.635   3.774
  145DMC      O 1458   3.117   0.736   3.840
  145DMC      C 1459   3.048   0.849   3.866
  145DMC      O 1460   2.931   0.870   3.837
  145DMC      O 1461   3.132   0.936   3.929
  145DMC      C 1462   3.072   1.060   3.961
  145DMC      H 1463   3.004   0.671   3.677
  145DMC      H 1464   3.103   0.548   3.758
  145DMC      H 1465   2.955   0.605   3.836
  145DMC      H 1466   3.147   1.123   4.010
  145DMC      H 1467   3.039   1.112   3.870
  145DMC      H 1468   2.989   1.046   4.030
  146DMC      C 1469   2.573   2.473   2.022
  146DMC      O 1470   2.680   2.388   1.978
  146DMC      C 1471   2.687   2.271   2.045
  146DMC      O 1472   2.613   2.235   2.135
  146DMC      O 1473   2.791   2.200   1.994
  146DMC      C 1474   2.811   2.074   2.056
  146DMC      H 1475   2.585   2.500   2.128
  146DMC      H 1476   2.575   2.565   1.963
  146DMC      H 1477   2.476   2.424   2.007
  146DMC      H 1478   2.897   2.025   2.009
  146DMC      H 1479   2.833   2.086   2.163
  146DMC      H 1480   2.723   2.010   2.042
  147DMC      C 1481   3.041   3.439   0.530
  147DMC      O 1482   2.928   3.511   0.479
  147DMC      C 1483   2.928   3.642   0.513
  147DMC      O 1484   3.012   3.699   0.582
  147DMC      O 1485   2.818   3.700   0.459
  147DMC      C 1486   2.805   3.838   0.488
  147DMC      H 1487   3.041   3.440   0.639
  147DMC      H 1488   3.032   3.335   0.497
  147DMC      H 1489   3.134   3.480   0.491
  147DMC      H 1490   2.713   3.875   0.441
  147DMC      H 1491   2.796   3.854   0.596
  147DMC      H 1492   2.890   3.894   0.448
  148DMC      C 1493   3.988   0.522   2.635
  148DMC      O 1494   4.030   0.418   2.546
  148DMC      C 1495   3.983   0.433   2.419
  148DMC      O 1496   3.912   0.524   2.379
  148DMC      O 1497   4.030   0.330   2.345
  148DMC      C 1498   3.988   0.334   2.209
  148DMC      H 1499   3.879   0.524   2.644
  148DMC      H 1500   4.030   0.502   2.734
  148DMC      H 1501   4.025   0.619   2.602
  148DMC      H 1502   4.030   0.246   2.158
  148DMC      H 1503   3.878   0.327   2.202
  148DMC      H 1504   4.025   0.424   2.160
  149DMC      C 1505   1.849   2.060   3.689
  149DMC      O 1506   1.829   2.201   3.705
  149DMC      C 1507   1.838   2.243   3.834
  149DMC      O 1508   1.859   2.172   3.931
  149DMC      O 1509   1.818   2.378   3.836
  149DMC      C 1510   1.825   2.435   3.966
  149DMC      H 1511   1.772   2.004   3.744
  149DMC      H 1512   1.840   2.036   3.583
  149DMC      H 1513   1.948   2.031   3.723
  149DMC      H 1514   1.807   2.543   3.957
  149DMC      H 1515   1.746   2.393   4.030
  149DMC      H 1516   1.923   2.419   4.010
  150DMC      C 1517   3.603   1.712   3.277
  150DMC      O 1518   3.650   1.585   3.231
  150DMC      C 1519   3.782   1.585   3.197
  150DMC      O 1520   3.857   1.681   3.202
  150DMC      O 1521   3.815   1.459   3.156
  150DMC      C 1522   3.951   1.446   3.118
  150DMC      H 1523   3.613   1.787   3.198
  150DMC      H 1524   3.497   1.702   3.301
  150DMC      H 1525   3.656   1.743   3.366
  150DMC      H 1526   3.967   1.342   3.086
  150DMC      H 1527   3.973   1.511   3.032
  150DMC      H 1528   4.017   1.467   3.201
  151DMC      C 1529   2.179   3.176   1.202
  151DMC      O 1530   2.271   3.157   1.310
  151DMC      C 1531   2.345   3.045   1.300
  151DMC      O 1532   2.339   2.963   1.209
  151DMC      O 1533   2.427   3.038   1.408
  151DMC      C 1534   2.511   2.924   1.409
  151DMC      H 1535   2.107   3.094   1.196
  151DMC      H 1536   2.124   3.269   1.219
  151DMC      H 1537   2.233   3.186   1.107
  151DMC      H 1538   2.573   2.927   1.500
  151DMC      H 1539   2.451   2.832   1.413
  151DMC      H 1540   2.577   2.924   1.323
  152DMC      C 1541   2.452   0.410   0.804
  152DMC      O 1542   2.442   0.322   0.916
  152DMC      C 1543   2.315   0.291   0.949
  152DMC      O 1544   2.214   0.332   0.894
  152DMC      O 1545   2.318   0.207   1.056
  152DMC      C 1546   2.190   0.167   1.102
  152DMC      H 1547   2.403   0.506   0.825
  152DMC      H 1548   2.558   0.429   0.784
  152DMC      H 1549   2.409   0.365   0.715
  152DMC      H 1550   2.203   0.100   1.188
  152DMC      H 1551   2.132   0.254   1.135
  152DMC      H 1552   2.137   0.112   1.024
  153DMC      C 1553   1.495   1.947   3.514
  153DMC      O 1554   1.629   1.904   3.544
  153DMC      C 1555   1.690   1.841   3.441
  153DMC      O 1556   1.642   1.820   3.331
  153DMC      O 1557   1.815   1.806   3.482
  153DMC      C 1558   1.891   1.738   3.383
  153DMC      H 1559   1.432   1.862   3.489
  153DMC      H 1560   1.454   1.997   3.602
  153DMC      H 1561   1.496   2.019   3.432
  153DMC      H 1562   1.989   1.713   3.426
  153DMC      H 1563   1.841   1.644   3.354
  153DMC      H 1564   1.906   1.802   3.296
  154DMC      C 1565   1.194   2.906   0.157
  154DMC      O 1566   1.272   2.788   0.139
  154DMC      C 1567   1.400   2.800   0.181
  154DMC      O 1568   1.450   2.900   0.230
  154DMC      O 1569   1.464   2.682   0.158
  154DMC      C 1570   1.600   2.681   0.198
  154DMC      H 1571   1.235   2.989   0.100
  154DMC      H 1572   1.092   2.886   0.121
  154DMC      H 1573   1.188   2.932   0.263
  154DMC      H 1574   1.642   2.583   0.175
  154DMC      H 1575   1.657   2.756   0.141
  154DMC      H 1576   1.609   2.699   0.305
  155DMC      C 1577   0.846   2.718   1.475
  155DMC      O 1578   0.934   2.605   1.476
  155DMC      C 1579   1.046   2.622   1.401
  155DMC      O 1580   1.074   2.722   1.337
  155DMC      O 1581   1.121   2.509   1.410
  155DMC      C 1582   1.241   2.514   1.335
  155DMC      H 1583   0.811   2.739   1.374
  155DMC      H 1584   0.760   2.694   1.538
  155DMC      H 1585   0.896   2.806   1.517
  155DMC      H 1586   1.294   2.419   1.348
  155DMC      H 1587   1.220   2.527   1.228
  155DMC      H 1588   1.306   2.594   1.372
  156DMC      C 1589   2.057   2.835   3.394
  156DMC      O 1590   1.926   2.805   3.443
  156DMC      C 1591   1.856   2.721   3.363
  156DMC      O 1592   1.896   2.672   3.258
  156DMC      O 1593   1.734   2.700   3.419
  156DMC      C 1594   1.651   2.613   3.345
  156DMC      H 1595   2.052   2.885   3.296
  156DMC      H 1596   2.105   2.903   3.465
  156DMC      H 1597   2.118   2.745   3.388
  156DMC      H 1598   1.555   2.603   3.398
  156DMC      H 1599   1.630   2.655   3.246
  156DMC      H 1600   1.696   2.514   3.337
  157DMC      C 1601   3.242   1.928   1.774
  157DMC      O 1602   3.329   1.815   1.777
  157DMC      C 1603   3.351   1.767   1.902
  157DMC      O 1604   3.305   1.812   2.005
  157DMC      O 1605   3.435   1.660   1.892
  157DMC      C 1606   3.466   1.600   2.016
  157DMC      H 1607   3.284   2.012   1.830
  157DMC      H 1608   3.230   1.960   1.670
  157DMC      H 1609   3.143   1.902   1.813
  157DMC      H 1610   3.535   1.516   1.998
  157DMC      H 1611   3.518   1.672   2.082
  157DMC      H 1612   3.376   1.562   2.064
  158DMC      C 1613   2.801   1.886   0.140
  158DMC      O 1614   2.776   1.751   0.100
  158DMC      C 1615   2.868   1.663   0.145
  158DMC      O 1616   2.966   1.690   0.213
  158DMC      O 1617   2.834   1.539   0.101
  158DMC      C 1618   2.924   1.437   0.141
  158DMC      H 1619   2.896   1.921   0.100
  158DMC      H 1620   2.721   1.949   0.100
  158DMC      H 1621   2.800   1.895   0.249
  158DMC      H 1622   2.887   1.341   0.100
  158DMC      H 1623   3.024   1.455   0.100
  158DMC      H 1624   2.927   1.429   0.250
  159DMC      C 1625   3.437   0.410   0.260
  159DMC      O 1626   3.474   0.375   0.394
  159DMC      C 1627   3.588   0.433   0.436
  159DMC      O 1628   3.659   0.508   0.371
  159DMC      O 1629   3.612   0.392   0.564
  159DMC      C 1630   3.730   0.446   0.620
  159DMC      H 1631   3.514   0.378   0.189
  159DMC      H 1632   3.344   0.359   0.235
  159DMC      H 1633   3.421   0.518   0.252
  159DMC      H 1634   3.741   0.406   0.722
  159DMC      H 1635   3.818   0.414   0.563
  159DMC      H 1636   3.725   0.555   0.625
  160DMC      C 1637   1.335   3.506   3.889
  160DMC      O 1638   1.469   3.554   3.873
  160DMC      C 1639   1.498   3.594   3.747
  160DMC      O 1640   1.421   3.591   3.651
  160DMC      O 1641   1.626   3.637   3.745
  160DMC      C 1642   1.670   3.682   3.617
  160DMC      H 1643   1.317   3.419   3.826
  160DMC      H 1644   1.321   3.477   3.993
  160DMC      H 1645   1.262   3.585   3.866
  160DMC      H 1646   1.774   3.714   3.626
  160DMC      H 1647   1.665   3.600   3.544
  160DMC      H 1648   1.610   3.767   3.584
  161DMC      C 1649   1.819   1.854   1.730
  161DMC      O 1650   1.957   1.832   1.762
  161DMC      C 1651   2.043   1.881   1.669
  161DMC      O 1652   2.012   1.938   1.566
  161DMC      O 1653   2.170   1.854   1.710
  161DMC      C 1654   2.270   1.900   1.621
  161DMC      H 1655   1.793   1.804   1.636
  161DMC      H 1656   1.759   1.812   1.811
  161DMC      H 1657   1.798   1.961   1.724
  161DMC      H 1658   2.368   1.873   1.663
  161DMC      H 1659   2.260   1.851   1.523
  161DMC      H 1660   2.265   2.008   1.611
  162DMC      C 1661   2.343   1.216   0.252
  162DMC      O 1662   2.285   1.346   0.233
  162DMC      C 1663   2.263   1.414   0.348
  162DMC      O 1664   2.288   1.373   0.461
  162DMC      O 1665   2.209   1.534   0.317
  162DMC      C 1666   2.181   1.615   0.430
  162DMC      H 1667   2.276   1.153   0.311
  162DMC      H 1668   2.357   1.170   0.154
  162DMC      H 1669   2.440   1.224   0.300
  162DMC      H 1670   2.137   1.710   0.395
  162DMC      H 1671   2.108   1.566   0.496
  162DMC      H 1672   2.273   1.638   0.485
  163DMC      C 1673   1.093   3.555   0.164
  163DMC      O 1674   1.116   3.413   0.167
  163DMC      C 1675   1.012   3.342   0.216
  163DMC      O 1676   0.906   3.389   0.257
  163DMC      O 1677   1.045   3.211   0.214
  163DMC      C 1678   0.944   3.125   0.263
  163DMC      H 1679   1.077   3.593   0.265
  163DMC      H 1680   1.182   3.603   0.123
  163DMC      H 1681   1.008   3.579   0.100
  163DMC      H 1682   0.981   3.021   0.258
  163DMC      H 1683   0.923   3.147   0.369
  163DMC      H 1684   0.854   3.133   0.203
  164DMC      C 1685   2.996   0.208   2.321
  164DMC      O 1686   3.091   0.239   2.219
  164DMC      C 1687   3.218   0.204   2.250
  164DMC      O 1688   3.254   0.151   2.354
  164DMC      O 1689   3.299   0.239   2.146
  164DMC      C 1690   3.435   0.208   2.167
  164DMC      H 1691   3.019   0.261   2.414
  164DMC      H 1692   2.897   0.239   2.286
  164DMC      H 1693   2.993   0.100   2.339
  164DMC      H 1694   3.492   0.240   2.078
  164DMC      H 1695   3.475   0.262   2.254
  164DMC      H 1696   3.449   0.100   2.179
  165DMC      C 1697   1.054   0.957   2.396
  165DMC      O 1698   1.130   0.912   2.283
  165DMC      C 1699   1.173   0.784   2.294
  165DMC      O 1700   1.154   0.710   2.389
  165DMC      O 1701   1.243   0.754   2.182
  165DMC      C 1702   1.295   0.621   2.181
  165DMC      H 1703   1.115   0.955   2.487
  165DMC      H 1704   1.023   1.061   2.378
  165DMC      H 1705   0.964   0.897   2.409
  165DMC      H 1706   1.350   0.607   2.087
  165DMC      H 1707   1.365   0.607   2.264
  165DMC      H 1708   1.214   0.548   2.186
  166DMC      C 1709   3.844   1.611   0.831
  166DMC      O 1710   3.787   1.480   0.833
  166DMC      C 1711   3.847   1.393   0.749
  166DMC      O 1712   3.942   1.418   0.676
  166DMC      O 1713   3.785   1.272   0.761
  166DMC      C 1714   3.839   1.172   0.677
  166DMC      H 1715   3.835   1.656   0.731
  166DMC      H 1716   3.788   1.674   0.902
  166DMC      H 1717   3.948   1.609   0.862
  166DMC      H 1718   3.782   1.079   0.693
  166DMC      H 1719   3.829   1.200   0.571
  166DMC      H 1720   3.944   1.152   0.703
  167DMC      C 1721   2.869   2.727   1.304
  167DMC      O 1722   2.782   2.638   1.374
  167DMC      C 1723   2.845   2.529   1.424
  167DMC      O 1724   2.964   2.503   1.412
  167DMC      O 1725   2.753   2.453   1.488
  167DMC      C 1726   2.807   2.334   1.545
  167DMC      H 1727   2.914   2.678   1.217
  167DMC      H 1728   2.810   2.812   1.268
  167DMC      H 1729   2.947   2.766   1.370
  167DMC      H 1730   2.725   2.279   1.594
  167DMC      H 1731   2.848   2.269   1.467
  167DMC      H 1732   2.882   2.358   1.620
  168DMC      C 1733   2.769   3.150   0.920
  168DMC      O 1734   2.660   3.120   0.831
  168DMC      C 1735   2.545   3.185   0.863
  168DMC      O 1736   2.529   3.261   0.957
  168DMC      O 1737   2.450   3.149   0.773
  168DMC      C 1738   2.324   3.210   0.795
  168DMC      H 1739   2.745   3.118   1.022
  168DMC      H 1740   2.856   3.093   0.886
  168DMC      H 1741   2.793   3.256   0.917
  168DMC      H 1742   2.255   3.175   0.718
  168DMC      H 1743   2.284   3.180   0.893
  168DMC      H 1744   2.332   3.319   0.788
  169DMC      C 1745   3.453   2.890   3.840
  169DMC      O 1746   3.417   3.012   3.907
  169DMC      C 1747   3.330   3.088   3.837
  169DMC      O 1748   3.284   3.062   3.727
  169DMC      O 1749   3.303   3.199   3.910
  169DMC      C 1750   3.213   3.289   3.848
  169DMC      H 1751   3.503   2.912   3.745
  169DMC      H 1752   3.523   2.836   3.904
  169DMC      H 1753   3.366   2.827   3.824
  169DMC      H 1754   3.198   3.375   3.914
  169DMC      H 1755   3.254   3.326   3.753
  169DMC      H 1756   3.116   3.241   3.832
  170DMC      C 1757   0.282   0.831   3.456
  170DMC      O 1758   0.295   0.953   3.530
  170DMC      C 1759   0.241   1.060   3.467
  170DMC      O 1760   0.188   1.060   3.357
  170DMC      O 1761   0.259   1.169   3.546
  170DMC      C 1762   0.208   1.289   3.491
  170DMC      H 1763   0.335   0.838   3.360
  170DMC      H 1764   0.327   0.750   3.515
  170DMC      H 1765   0.177   0.806   3.439
  170DMC      H 1766   0.228   1.371   3.563
  170DMC      H 1767   0.259   1.314   3.397
  170DMC      H 1768   0.100   1.282   3.476
  171DMC      C 1769   1.901   0.761   0.566
  171DMC      O 1770   2.005   0.830   0.637
  171DMC      C 1771   2.025   0.957   0.594
  171DMC      O 1772   1.964   1.013   0.504
  171DMC      O 1773   2.125   1.012   0.669
  171DMC      C 1774   2.156   1.145   0.633
  171DMC      H 1775   1.926   0.753   0.460
  171DMC      H 1776   1.892   0.661   0.608
  171DMC      H 1777   1.805   0.812   0.579
  171DMC      H 1778   2.238   1.180   0.698
  171DMC      H 1779   2.191   1.151   0.529
  171DMC      H 1780   2.070   1.211   0.649
  172DMC      C 1781   0.247   2.927   0.686
  172DMC      O 1782   0.389   2.943   0.680
  172DMC      C 1783   0.441   3.011   0.785
  172DMC      O 1784   0.378   3.056   0.879
  172DMC      O 1785   0.576   3.019   0.768
  172DMC      C 1786   0.642   3.089   0.872
  172DMC      H 1787   0.197   3.024   0.686
  172DMC      H 1788   0.215   2.871   0.598
  172DMC      H 1789   0.219   2.869   0.775
  172DMC      H 1790   0.750   3.091   0.849
  172DMC      H 1791   0.607   3.192   0.878
  172DMC      H 1792   0.629   3.037   0.967
  173DMC      C 1793   3.236   1.187   1.975
  173DMC      O 1794   3.277   1.243   2.100
  173DMC      C 1795   3.241   1.169   2.208
  173DMC      O 1796   3.179   1.064   2.205
  173DMC      O 1797   3.287   1.232   2.319
  173DMC      C 1798   3.255   1.165   2.440
  173DMC      H 1799   3.126   1.179   1.970
  173DMC      H 1800   3.269   1.254   1.895
  173DMC      H 1801   3.281   1.089   1.960
  173DMC      H 1802   3.295   1.224   2.524
  173DMC      H 1803   3.146   1.157   2.453
  173DMC      H 1804   3.301   1.066   2.442
  174DMC      C 1805   3.011   1.944   3.443
  174DMC      O 1806   2.882   1.905   3.395
  174DMC      C 1807   2.779   1.947   3.473
  174DMC      O 1808   2.789   2.012   3.576
  174DMC      O 1809   2.663   1.904   3.417
  174DMC      C 1810   2.547   1.941   3.490
  174DMC      H 1811   3.030   1.902   3.542
  174DMC      H 1812   3.086   1.906   3.374
  174DMC      H 1813   3.019   2.053   3.446
  174DMC      H 1814   2.459   1.901   3.437
  174DMC      H 1815   2.549   1.897   3.590
  174DMC      H 1816   2.538   2.050   3.495
  175DMC      C 1817   3.877   1.935   1.501
  175DMC      O 1818   3.783   1.830   1.478
  175DMC      C 1819   3.734   1.827   1.352
  175DMC      O 1820   3.762   1.905   1.262
  175DMC      O 1821   3.646   1.723   1.343
  175DMC      C 1822   3.587   1.709   1.215
  175DMC      H 1823   3.830   2.033   1.485
  175DMC      H 1824   3.911   1.929   1.604
  175DMC      H 1825   3.964   1.924   1.435
  175DMC      H 1826   3.518   1.624   1.218
  175DMC      H 1827   3.528   1.799   1.189
  175DMC      H 1828   3.663   1.690   1.139
  176DMC      C 1829   2.891   2.765   1.654
  176DMC      O 1830   2.966   2.652   1.699
  176DMC      C 1831   3.063   2.612   1.613
  176DMC      O 1832   3.088   2.664   1.505
  176DMC      O 1833   3.127   2.505   1.667
  176DMC      C 1834   3.231   2.454   1.585
  176DMC      H 1835   2.839   2.742   1.560
  176DMC      H 1836   2.816   2.789   1.730
  176DMC      H 1837   2.956   2.852   1.641
  176DMC      H 1838   3.276   2.368   1.637
  176DMC      H 1839   3.191   2.418   1.489
  176DMC      H 1840   3.309   2.529   1.569
  177DMC      C 1841   2.703   2.455   3.959
  177DMC      O 1842   2.719   2.592   3.998
  177DMC      C 1843   2.654   2.679   3.918
  177DMC      O 1844   2.588   2.651   3.819
  177DMC      O 1845   2.676   2.805   3.965
  177DMC      C 1846   2.614   2.907   3.889
  177DMC      H 1847   2.744   2.438   3.859
  177DMC      H 1848   2.758   2.392   4.030
  177DMC      H 1849   2.597   2.426   3.963
  177DMC      H 1850   2.639   3.004   3.935
  177DMC      H 1851   2.653   2.907   3.786
  177DMC      H 1852   2.506   2.895   3.890
  178DMC      C 1853   3.070   2.071   3.808
  178DMC      O 1854   3.098   2.076   3.668
  178DMC      C 1855   3.199   2.160   3.635
  178DMC      O 1856   3.263   2.229   3.713
  178DMC      O 1857   3.216   2.156   3.500
  178DMC      C 1858   3.320   2.240   3.453
  178DMC      H 1859   3.039   2.170   3.845
  178DMC      H 1860   2.988   2.001   3.824
  178DMC      H 1861   3.157   2.035   3.864
  178DMC      H 1862   3.325   2.230   3.344
  178DMC      H 1863   3.297   2.345   3.476
  178DMC      H 1864   3.416   2.211   3.495
  179DMC      C 1865   2.272   2.345   2.228
  179DMC      O 1866   2.146   2.391   2.278
  179DMC      C 1867   2.044   2.377   2.189
  179DMC      O 1868   2.053   2.332   2.076
  179DMC      O 1869   1.930   2.424   2.248
  179DMC      C 1870   1.816   2.415   2.165
  179DMC      H 1871   2.302   2.403   2.140
  179DMC      H 1872   2.347   2.360   2.306
  179DMC      H 1873   2.268   2.239   2.205
  179DMC      H 1874   1.730   2.456   2.220
  179DMC      H 1875   1.829   2.476   2.074
  179DMC      H 1876   1.794   2.311   2.139
  180DMC      C 1877   1.275   1.932   3.904
  180DMC      O 1878   1.299   1.791   3.902
  180DMC      C 1879   1.400   1.754   3.820
  180DMC      O 1880   1.468   1.829   3.752
  180DMC      O 1881   1.413   1.619   3.827
  180DMC      C 1882   1.517   1.567   3.745
  180DMC      H 1883   1.247   1.968   3.804
  180DMC      H 1884   1.192   1.951   3.972
  180DMC      H 1885   1.363   1.985   3.941
  180DMC      H 1886   1.519   1.458   3.757
  180DMC      H 1887   1.497   1.589   3.639
  180DMC      H 1888   1.614   1.607   3.776
  181DMC      C 1889   2.962   2.842   3.857
  181DMC      O 1890   2.871   2.935   3.796
  181DMC      C 1891   2.887   3.063   3.837
  181DMC      O 1892   2.969   3.102   3.919
  181DMC      O 1893   2.796   3.140   3.773
  181DMC      C 1894   2.802   3.277   3.808
  181DMC      H 1895   2.948   2.840   3.965
  181DMC      H 1896   2.941   2.743   3.817
  181DMC      H 1897   3.065   2.868   3.832
  181DMC      H 1898   2.725   3.331   3.751
  181DMC      H 1899   2.782   3.291   3.915
  181DMC      H 1900   2.899   3.319   3.781
  182DMC      C 1901   1.186   3.553   2.614
  182DMC      O 1902   1.213   3.439   2.530
  182DMC      C 1903   1.181   3.321   2.588
  182DMC      O 1904   1.135   3.306   2.700
  182DMC      O 1905   1.210   3.222   2.499
  182DMC      C 1906   1.182   3.091   2.548
  182DMC      H 1907   1.246   3.548   2.705
  182DMC      H 1908   1.215   3.643   2.559
  182DMC      H 1909   1.080   3.559   2.638
  182DMC      H 1910   1.209   3.019   2.470
  182DMC      H 1911   1.243   3.070   2.637
  182DMC      H 1912   1.076   3.081   2.570
  183DMC      C 1913   1.719   1.119   1.063
  183DMC      O 1914   1.582   1.151   1.087
  183DMC      C 1915   1.495   1.085   1.006
  183DMC      O 1916   1.526   1.005   0.919
  183DMC      O 1917   1.369   1.123   1.039
  183DMC      C 1918   1.268   1.061   0.961
  183DMC      H 1919   1.748   1.146   0.961
  183DMC      H 1920   1.781   1.176   1.133
  183DMC      H 1921   1.738   1.013   1.080
  183DMC      H 1922   1.171   1.099   0.994
  183DMC      H 1923   1.280   1.087   0.855
  183DMC      H 1924   1.270   0.953   0.975
  184DMC      C 1925   1.438   2.376   1.031
  184DMC      O 1926   1.433   2.515   1.065
  184DMC      C 1927   1.350   2.587   0.987
  184DMC      O 1928   1.283   2.544   0.894
  184DMC      O 1929   1.353   2.717   1.029
  184DMC      C 1930   1.270   2.803   0.954
  184DMC      H 1931   1.475   2.362   0.929
  184DMC      H 1932   1.507   2.326   1.100
  184DMC      H 1933   1.340   2.330   1.043
  184DMC      H 1934   1.280   2.905   0.995
  184DMC      H 1935   1.301   2.806   0.849
  184DMC      H 1936   1.165   2.773   0.963
  185DMC      C 1937   1.614   2.758   1.114
  185DMC      O 1938   1.677   2.630   1.123
  185DMC      C 1939   1.789   2.619   1.047
  185DMC      O 1940   1.836   2.707   0.976
  185DMC      O 1941   1.841   2.495   1.064
  185DMC      C 1942   1.959   2.471   0.989
  185DMC      H 1943   1.581   2.778   1.011
  185DMC      H 1944   1.525   2.756   1.178
  185DMC      H 1945   1.680   2.836   1.149
  185DMC      H 1946   1.991   2.368   1.009
  185DMC      H 1947   1.939   2.480   0.881
  185DMC      H 1948   2.038   2.539   1.020
  186DMC      C 1949   0.241   1.378   0.300
  186DMC      O 1950   0.294   1.265   0.229
  186DMC      C 1951   0.335   1.165   0.310
  186DMC      O 1952   0.331   1.165   0.433
  186DMC      O 1953   0.382   1.064   0.232
  186DMC      C 1954   0.429   0.952   0.306
  186DMC      H 1955   0.317   1.422   0.365
  186DMC      H 1956   0.210   1.453   0.226
  186DMC      H 1957   0.153   1.349   0.358
  186DMC      H 1958   0.466   0.877   0.234
  186DMC      H 1959   0.514   0.981   0.370
  186DMC      H 1960   0.349   0.908   0.364
  187DMC      C 1961   3.138   0.693   1.421
  187DMC      O 1962   3.106   0.626   1.543
  187DMC      C 1963   2.987   0.663   1.597
  187DMC      O 1964   2.910   0.746   1.550
  187DMC      O 1965   2.969   0.593   1.712
  187DMC      C 1966   2.847   0.623   1.778
  187DMC      H 1967   3.145   0.802   1.437
  187DMC      H 1968   3.235   0.657   1.386
  187DMC      H 1969   3.063   0.671   1.344
  187DMC      H 1970   2.842   0.562   1.869
  187DMC      H 1971   2.845   0.729   1.808
  187DMC      H 1972   2.762   0.598   1.715
  188DMC      C 1973   2.961   0.991   3.248
  188DMC      O 1974   2.902   0.861   3.265
  188DMC      C 1975   2.787   0.862   3.336
  188DMC      O 1976   2.734   0.961   3.385
  188DMC      O 1977   2.741   0.735   3.345
  188DMC      C 1978   2.620   0.722   3.418
  188DMC      H 1979   2.987   1.034   3.345
  188DMC      H 1980   3.052   0.979   3.189
  188DMC      H 1981   2.893   1.057   3.193
  188DMC      H 1982   2.593   0.616   3.420
  188DMC      H 1983   2.635   0.755   3.522
  188DMC      H 1984   2.540   0.778   3.370
  189DMC      C 1985   0.417   2.135   3.354
  189DMC      O 1986   0.398   2.218   3.469
  189DMC      C 1987   0.328   2.331   3.445
  189DMC      O 1988   0.283   2.365   3.336
  189DMC      O 1989   0.316   2.400   3.561
  189DMC      C 1990   0.245   2.521   3.549
  189DMC      H 1991   0.473   2.188   3.277
  189DMC      H 1992   0.474   2.047   3.384
  189DMC      H 1993   0.321   2.102   3.314
  189DMC      H 1994   0.242   2.570   3.647
  189DMC      H 1995   0.296   2.590   3.479
  189DMC      H 1996   0.142   2.502   3.516
  190DMC      C 1997   0.680   3.575   2.898
  190DMC      O 1998   0.727   3.441   2.918
  190DMC      C 1999   0.634   3.359   2.972
  190DMC      O 2000   0.520   3.390   3.004
  190DMC      O 2001   0.689   3.236   2.987
  190DMC      C 2002   0.602   3.140   3.043
  190DMC      H 2003   0.651   3.622   2.993
  190DMC      H 2004   0.761   3.634   2.854
  190DMC      H 2005   0.596   3.576   2.828
  190DMC      H 2006   0.656   3.045   3.052
  190DMC      H 2007   0.571   3.170   3.145
  190DMC      H 2008   0.515   3.125   2.979
  191DMC      C 2009   3.178   2.628   2.580
  191DMC      O 2010   3.223   2.759   2.614
  191DMC      C 2011   3.195   2.853   2.521
  191DMC      O 2012   3.138   2.833   2.414
  191DMC      O 2013   3.243   2.972   2.564
  191DMC      C 2014   3.220   3.079   2.474
  191DMC      H 2015   3.227   2.592   2.489
  191DMC      H 2016   3.205   2.560   2.662
  191DMC      H 2017   3.069   2.626   2.569
  191DMC      H 2018   3.262   3.171   2.518
  191DMC      H 2019   3.271   3.061   2.379
  191DMC      H 2020   3.113   3.095   2.459
  192DMC      C 2021   2.132   3.670   1.287
  192DMC      O 2022   2.050   3.696   1.173
  192DMC      C 2023   2.049   3.595   1.082
  192DMC      O 2024   2.111   3.490   1.092
  192DMC      O 2025   1.968   3.631   0.979
  192DMC      C 2026   1.959   3.533   0.877
  192DMC      H 2027   2.237   3.657   1.257
  192DMC      H 2028   2.126   3.757   1.354
  192DMC      H 2029   2.097   3.583   1.341
  192DMC      H 2030   1.892   3.572   0.799
  192DMC      H 2031   2.057   3.515   0.832
  192DMC      H 2032   1.917   3.441   0.916
  193DMC      C 2033   3.443   1.483   0.151
  193DMC      O 2034   3.335   1.562   0.100
  193DMC      C 2035   3.328   1.686   0.156
  193DMC      O 2036   3.403   1.730   0.241
  193DMC      O 2037   3.222   1.751   0.100
  193DMC      C 2038   3.204   1.883   0.150
  193DMC      H 2039   3.432   1.466   0.258
  193DMC      H 2040   3.440   1.386   0.100
  193DMC      H 2041   3.539   1.530   0.129
  193DMC      H 2042   3.116   1.926   0.100
  193DMC      H 2043   3.183   1.880   0.258
  193DMC      H 2044   3.291   1.945   0.129
  194DMC      C 2045   2.460   3.990   3.155
  194DMC      O 2046   2.584   4.030   3.094
  194DMC      C 2047   2.694   3.985   3.160
  194DMC      O 2048   2.694   3.917   3.262
  194DMC      O 2049   2.804   4.029   3.093
  194DMC      C 2050   2.926   3.989   3.152
  194DMC      H 2051   2.452   4.030   3.256
  194DMC      H 2052   2.378   4.030   3.095
  194DMC      H 2053   2.452   3.881   3.156
  194DMC      H 2054   3.009   4.029   3.092
  194DMC      H 2055   2.935   4.030   3.254
  194DMC      H 2056   2.935   3.880   3.154
  195DMC      C 2057   1.813   0.302   1.810
  195DMC      O 2058   1.878   0.416   1.866
  195DMC      C 2059   1.960   0.480   1.779
  195DMC      O 2060   1.980   0.448   1.663
  195DMC      O 2061   2.016   0.586   1.843
  195DMC      C 2062   2.104   0.662   1.762
  195DMC      H 2063   1.886   0.227   1.778
  195DMC      H 2064   1.749   0.257   1.888
  195DMC      H 2065   1.749   0.331   1.727
  195DMC      H 2066   2.144   0.744   1.822
  195DMC      H 2067   2.189   0.600   1.729
  195DMC      H 2068   2.051   0.704   1.676
  196DMC      C 2069   0.782   1.194   1.526
  196DMC      O 2070   0.665   1.259   1.472
  196DMC      C 2071   0.552   1.234   1.542
  196DMC      O 2072   0.543   1.163   1.641
  196DMC      O 2073   0.450   1.301   1.482
  196DMC      C 2074   0.324   1.282   1.546
  196DMC      H 2075   0.770   1.085   1.524
  196DMC      H 2076   0.867   1.221   1.463
  196DMC      H 2077   0.802   1.229   1.627
  196DMC      H 2078   0.249   1.339   1.490
  196DMC      H 2079   0.295   1.176   1.544
  196DMC      H 2080   0.327   1.320   1.649
  197DMC      C 2081   2.239   1.094   0.955
  197DMC      O 2082   2.241   1.235   0.928
  197DMC      C 2083   2.318   1.306   1.015
  197DMC      O 2084   2.381   1.260   1.109
  197DMC      O 2085   2.312   1.437   0.979
  197DMC      C 2086   2.388   1.522   1.062
  197DMC      H 2087   2.197   1.074   1.054
  197DMC      H 2088   2.175   1.046   0.880
  197DMC      H 2089   2.339   1.052   0.947
  197DMC      H 2090   2.377   1.625   1.026
  197DMC      H 2091   2.351   1.519   1.166
  197DMC      H 2092   2.494   1.496   1.058
  198DMC      C 2093   1.645   3.363   0.699
  198DMC      O 2094   1.535   3.277   0.730
  198DMC      C 2095   1.429   3.342   0.786
  198DMC      O 2096   1.423   3.462   0.810
  198DMC      O 2097   1.332   3.251   0.811
  198DMC      C 2098   1.215   3.306   0.870
  198DMC      H 2099   1.684   3.411   0.789
  198DMC      H 2100   1.724   3.302   0.654
  198DMC      H 2101   1.615   3.439   0.626
  198DMC      H 2102   1.143   3.224   0.887
  198DMC      H 2103   1.239   3.351   0.967
  198DMC      H 2104   1.169   3.379   0.803
  199DMC      C 2105   2.791   0.903   2.756
  199DMC      O 2106   2.814   0.782   2.830
  199DMC      C 2107   2.922   0.788   2.911
  199DMC      O 2108   2.997   0.883   2.924
  199DMC      O 2109   2.934   0.668   2.975
  199DMC      C 2110   3.044   0.661   3.063
  199DMC      H 2111   2.876   0.926   2.691
  199DMC      H 2112   2.702   0.889   2.694
  199DMC      H 2113   2.772   0.986   2.824
  199DMC      H 2114   3.045   0.561   3.109
  199DMC      H 2115   3.139   0.674   3.008
  199DMC      H 2116   3.035   0.735   3.143
  200DMC      C 2117   3.860   2.235   1.866
  200DMC      O 2118   3.921   2.323   1.960
  200DMC      C 2119   3.865   2.446   1.964
  200DMC      O 2120   3.771   2.485   1.895
  200DMC      O 2121   3.931   2.521   2.057
  200DMC      C 2122   3.881   2.653   2.070
  200DMC      H 2123   3.869   2.274   1.764
  200DMC      H 2124   3.912   2.139   1.871
  200DMC      H 2125   3.755   2.218   1.891
  200DMC      H 2126   3.941   2.704   2.146
  200DMC      H 2127   3.892   2.708   1.976
  200DMC      H 2128   3.777   2.652   2.103
  201DMC      C 2129   1.071   0.923   2.009
  201DMC      O 2130   1.211   0.898   2.019
  201DMC      C 2131   1.284   0.950   1.917
  201DMC      O 2132   1.239   1.013   1.822
  201DMC      O 2133   1.414   0.920   1.938
  201DMC      C 2134   1.501   0.970   1.837
  201DMC      H 2135   1.030   0.878   1.918
  201DMC      H 2136   1.021   0.877   2.095
  201DMC      H 2137   1.050   1.030   2.011
  201DMC      H 2138   1.604   0.940   1.863
  201DMC      H 2139   1.476   0.925   1.740
  201DMC      H 2140   1.497   1.079   1.833
  202DMC      C 2141   3.798   3.310   2.670
  202DMC      O 2142   3.785   3.352   2.533
  202DMC      C 2143   3.660   3.341   2.484
  202DMC      O 2144   3.562   3.299   2.545
  202DMC      O 2145   3.661   3.385   2.355
  202DMC      C 2146   3.534   3.378   2.292
  202DMC      H 2147   3.772   3.204   2.680
  202DMC      H 2148   3.902   3.323   2.700
  202DMC      H 2149   3.735   3.371   2.735
  202DMC      H 2150   3.546   3.414   2.189
  202DMC      H 2151   3.499   3.274   2.287
  202DMC      H 2152   3.462   3.441   2.343
  203DMC      C 2153   0.443   3.928   3.522
  203DMC      O 2154   0.493   3.799   3.484
  203DMC      C 2155   0.517   3.717   3.590
  203DMC      O 2156   0.501   3.745   3.707
  203DMC      O 2157   0.563   3.599   3.541
  203DMC      C 2158   0.593   3.503   3.642
  203DMC      H 2159   0.516   3.981   3.584
  203DMC      H 2160   0.426   3.986   3.431
  203DMC      H 2161   0.348   3.918   3.575
  203DMC      H 2162   0.630   3.412   3.593
  203DMC      H 2163   0.673   3.541   3.708
  203DMC      H 2164   0.504   3.478   3.699
  204DMC      C 2165   1.174   2.951   1.448
  204DMC      O 2166   1.074   2.931   1.549
  204DMC      C 2167   0.969   3.016   1.540
  204DMC      O 2168   0.956   3.104   1.456
  204DMC      O 2169   0.882   2.988   1.640
  204DMC      C 2170   0.767   3.071   1.641
  204DMC      H 2171   1.217   3.051   1.455
  204DMC      H 2172   1.253   2.877   1.464
  204DMC      H 2173   1.131   2.934   1.349
  204DMC      H 2174   0.704   3.041   1.726
  204DMC      H 2175   0.796   3.176   1.656
  204DMC      H 2176   0.710   3.059   1.549
  205DMC      C 2177   1.942   3.136   2.274
  205DMC      O 2178   1.917   3.174   2.138
  205DMC      C 2179   1.849   3.290   2.126
  205DMC      O 2180   1.809   3.360   2.218
  205DMC      O 2181   1.831   3.316   1.994
  205DMC      C 2182   1.760   3.436   1.968
  205DMC      H 2183   1.848   3.120   2.328
  205DMC      H 2184   1.997   3.041   2.273
  205DMC      H 2185   2.003   3.210   2.324
  205DMC      H 2186   1.751   3.447   1.859
  205DMC      H 2187   1.659   3.431   2.010
  205DMC      H 2188   1.815   3.522   2.007
  206DMC      C 2189   3.941   2.421   0.999
  206DMC      O 2190   3.995   2.296   0.956
  206DMC      C 2191   3.955   2.190   1.030
  206DMC      O 2192   3.881   2.195   1.128
  206DMC      O 2193   4.012   2.078   0.979
  206DMC      C 2194   3.978   1.960   1.050
  206DMC      H 2195   3.973   2.444   1.101
  206DMC      H 2196   3.978   2.500   0.933
  206DMC      H 2197   3.832   2.421   0.993
  206DMC      H 2198   4.029   1.875   1.001
  206DMC      H 2199   4.013   1.965   1.154
  206DMC      H 2200   3.870   1.942   1.045
  207DMC      C 2201   2.915   1.424   1.346
  207DMC      O 2202   2.889   1.289   1.384
  207DMC      C 2203   2.961   1.198   1.315
  207DMC      O 2204   3.040   1.223   1.225
  207DMC      O 2205   2.928   1.074   1.360
  207DMC      C 2206   2.996   0.969   1.294
  207DMC      H 2207   2.888   1.441   1.241
  207DMC      H 2208   2.853   1.490   1.408
  207DMC      H 2209   3.019   1.450   1.363
  207DMC      H 2210   2.963   0.873   1.337
  207DMC      H 2211   2.972   0.968   1.187
  207DMC      H 2212   3.104   0.978   1.309
  208DMC      C 2213   3.572   0.202   1.517
  208DMC      O 2214   3.609   0.224   1.380
  208DMC      C 2215   3.742   0.209   1.357
  208DMC      O 2216   3.827   0.181   1.440
  208DMC      O 2217   3.764   0.231   1.225
  208DMC      C 2218   3.900   0.219   1.187
  208DMC      H 2219   3.622   0.275   1.583
  208DMC      H 2220   3.464   0.216   1.526
  208DMC      H 2221   3.597   0.100   1.548
  208DMC      H 2222   3.908   0.240   1.079
  208DMC      H 2223   3.962   0.294   1.240
  208DMC      H 2224   3.937   0.118   1.205
  209DMC      C 2225   0.721   1.964   1.536
  209DMC      O 2226   0.848   1.996   1.594
  209DMC      C 2227   0.934   2.055   1.508
  209DMC      O 2228   0.911   2.082   1.391
  209DMC      O 2229   1.050   2.080   1.574
  209DMC      C 2230   1.149   2.143   1.494
  209DMC      H 2231   0.732   1.894   1.453
  209DMC      H 2232   0.659   1.917   1.613
  209DMC      H 2233   0.670   2.055   1.502
  209DMC      H 2234   1.239   2.158   1.556
  209DMC      H 2235   1.177   2.078   1.410
  209DMC      H 2236   1.115   2.240   1.459
  210DMC      C 2237   2.788   0.294   2.605
  210DMC      O 2238   2.805   0.392   2.502
  210DMC      C 2239   2.841   0.514   2.548
  210DMC      O 2240   2.859   0.544   2.666
  210DMC      O 2241   2.855   0.597   2.442
  210DMC      C 2242   2.892   0.730   2.477
  210DMC      H 2243   2.709   0.323   2.674
  210DMC      H 2244   2.760   0.199   2.558
  210DMC      H 2245   2.882   0.278   2.659
  210DMC      H 2246   2.899   0.789   2.385
  210DMC      H 2247   2.816   0.776   2.541
  210DMC      H 2248   2.989   0.730   2.527
  211DMC      C 2249   0.987   2.606   2.745
  211DMC      O 2250   0.848   2.615   2.712
  211DMC      C 2251   0.772   2.673   2.808
  211DMC      O 2252   0.813   2.715   2.916
  211DMC      O 2253   0.643   2.675   2.765
  211DMC      C 2254   0.553   2.734   2.858
  211DMC      H 2255   1.002   2.545   2.835
  211DMC      H 2256   1.039   2.559   2.662
  211DMC      H 2257   1.029   2.706   2.760
  211DMC      H 2258   0.452   2.730   2.814
  211DMC      H 2259   0.551   2.676   2.952
  211DMC      H 2260   0.579   2.838   2.877
  212DMC      C 2261   3.396   1.589   2.352
  212DMC      O 2262   3.413   1.453   2.311
  212DMC      C 2263   3.526   1.431   2.239
  212DMC      O 2264   3.609   1.515   2.209
  212DMC      O 2265   3.531   1.299   2.207
  212DMC      C 2266   3.645   1.263   2.131
  212DMC      H 2267   3.389   1.655   2.265
  212DMC      H 2268   3.303   1.596   2.408
  212DMC      H 2269   3.478   1.620   2.416
  212DMC      H 2270   3.639   1.155   2.110
  212DMC      H 2271   3.646   1.317   2.035
  212DMC      H 2272   3.736   1.282   2.188
  213DMC      C 2273   2.428   2.113   1.929
  213DMC      O 2274   2.328   2.065   2.019
  213DMC      C 2275   2.274   1.946   1.983
  213DMC      O 2276   2.303   1.881   1.883
  213DMC      O 2277   2.182   1.911   2.077
  213DMC      C 2278   2.117   1.788   2.050
  213DMC      H 2279   2.385   2.129   1.829
  213DMC      H 2280   2.465   2.208   1.966
  213DMC      H 2281   2.512   2.043   1.923
  213DMC      H 2282   2.044   1.769   2.130
  213DMC      H 2283   2.062   1.793   1.955
  213DMC      H 2284   2.189   1.706   2.049
  214DMC      C 2285   0.176   1.724   2.611
  214DMC      O 2286   0.105   1.807   2.518
  214DMC      C 2287   0.185   1.877   2.435
  214DMC      O 2288   0.307   1.876   2.435
  214DMC      O 2289   0.107   1.951   2.352
  214DMC      C 2290   0.179   2.030   2.259
  214DMC      H 2291   0.239   1.785   2.676
  214DMC      H 2292   0.103   1.671   2.673
  214DMC      H 2293   0.236   1.650   2.558
  214DMC      H 2294   0.107   2.086   2.198
  214DMC      H 2295   0.242   2.103   2.312
  214DMC      H 2296   0.240   1.967   2.194
  215DMC      C 2297   3.856   3.894   0.470
  215DMC      O 2298   3.799   3.804   0.375
  215DMC      C 2299   3.672   3.766   0.404
  215DMC      O 2300   3.607   3.801   0.502
  215DMC      O 2301   3.629   3.682   0.307
  215DMC      C 2302   3.497   3.634   0.326
  215DMC      H 2303   3.861   3.847   0.569
  215DMC      H 2304   3.957   3.918   0.438
  215DMC      H 2305   3.798   3.986   0.475
  215DMC      H 2306   3.472   3.567   0.243
  215DMC      H 2307   3.489   3.577   0.420
  215DMC      H 2308   3.426   3.717   0.326
  216DMC      C 2309   3.957   2.115   3.893
  216DMC      O 2310   3.854   2.138   3.796
  216DMC      C 2311   3.783   2.027   3.765
  216DMC      O 2312   3.800   1.915   3.811
  216DMC      O 2313   3.689   2.062   3.673
  216DMC      C 2314   3.607   1.954   3.631
  216DMC      H 2315   4.030   2.043   3.856
  216DMC      H 2316   4.008   2.210   3.912
  216DMC      H 2317   3.914   2.080   3.987
  216DMC      H 2318   3.535   1.991   3.557
  216DMC      H 2319   3.668   1.876   3.583
  216DMC      H 2320   3.551   1.913   3.716
  217DMC      C 2321   2.469   0.595   3.087
  217DMC      O 2322   2.491   0.500   3.192
  217DMC      C 2323   2.506   0.373   3.148
  217DMC      O 2324   2.501   0.336   3.031
  217DMC      O 2325   2.527   0.293   3.255
  217DMC      C 2326   2.544   0.156   3.222
  217DMC      H 2327   2.376   0.572   3.033
  217DMC      H 2328   2.459   0.694   3.133
  217DMC      H 2329   2.554   0.598   3.019
  217DMC      H 2330   2.559   0.100   3.316
  217DMC      H 2331   2.453   0.116   3.174
  217DMC      H 2332   2.631   0.142   3.159
  218DMC      C 2333   1.232   2.668   3.304
  218DMC      O 2334   1.101   2.726   3.308
  218DMC      C 2335   1.017   2.665   3.395
  218DMC      O 2336   1.044   2.569   3.466
  218DMC      O 2337   0.897   2.729   3.391
  218DMC      C 2338   0.800   2.674   3.478
  218DMC      H 2339   1.227   2.563   3.271
  218DMC      H 2340   1.292   2.724   3.231
  218DMC      H 2341   1.280   2.675   3.401
  218DMC      H 2342   0.707   2.732   3.466
  218DMC      H 2343   0.778   2.570   3.451
  218DMC      H 2344   0.832   2.682   3.582
  219DMC      C 2345   1.772   1.242   2.357
  219DMC      O 2346   1.895   1.280   2.420
  219DMC      C 2347   1.889   1.280   2.555
  219DMC      O 2348   1.791   1.252   2.622
  219DMC      O 2349   2.011   1.317   2.603
  219DMC      C 2350   2.018   1.321   2.745
  219DMC      H 2351   1.693   1.312   2.382
  219DMC      H 2352   1.788   1.245   2.248
  219DMC      H 2353   1.744   1.140   2.385
  219DMC      H 2354   2.119   1.353   2.773
  219DMC      H 2355   1.947   1.396   2.784
  219DMC      H 2356   1.999   1.223   2.787
  220DMC      C 2357   3.142   2.924   3.349
  220DMC      O 2358   3.081   2.822   3.428
  220DMC      C 2359   3.083   2.699   3.369
  220DMC      O 2360   3.131   2.673   3.260
  220DMC      O 2361   3.023   2.611   3.453
  220DMC      C 2362   3.018   2.479   3.404
  220DMC      H 2363   3.090   2.936   3.253
  220DMC      H 2364   3.136   3.018   3.404
  220DMC      H 2365   3.248   2.902   3.332
  220DMC      H 2366   2.967   2.416   3.478
  220DMC      H 2367   2.960   2.474   3.310
  220DMC      H 2368   3.119   2.440   3.388
  221DMC      C 2369   2.668   1.990   2.919
  221DMC      O 2370   2.576   1.886   2.883
  221DMC      C 2371   2.526   1.818   2.989
  221DMC      O 2372   2.555   1.838   3.107
  221DMC      O 2373   2.440   1.724   2.943
  221DMC      C 2374   2.382   1.644   3.045
  221DMC      H 2375   2.755   1.948   2.970
  221DMC      H 2376   2.702   2.039   2.828
  221DMC      H 2377   2.619   2.065   2.982
  221DMC      H 2378   2.315   1.571   2.997
  221DMC      H 2379   2.459   1.589   3.100
  221DMC      H 2380   2.322   1.706   3.112
  222DMC      C 2381   1.414   1.218   3.113
  222DMC      O 2382   1.357   1.090   3.140
  222DMC      C 2383   1.377   1.047   3.267
  222DMC      O 2384   1.438   1.107   3.354
  222DMC      O 2385   1.319   0.925   3.280
  222DMC      C 2386   1.333   0.868   3.409
  222DMC      H 2387   1.523   1.216   3.127
  222DMC      H 2388   1.393   1.244   3.009
  222DMC      H 2389   1.370   1.294   3.178
  222DMC      H 2390   1.283   0.770   3.409
  222DMC      H 2391   1.439   0.852   3.433
  222DMC      H 2392   1.285   0.931   3.485
  223DMC      C 2393   2.237   3.596   2.917
  223DMC      O 2394   2.305   3.610   2.792
  223DMC      C 2395   2.227   3.588   2.684
  223DMC      O 2396   2.109   3.557   2.686
  223DMC      O 2397   2.303   3.605   2.572
  223DMC      C 2398   2.232   3.584   2.451
  223DMC      H 2399   2.199   3.493   2.929
  223DMC      H 2400   2.308   3.616   2.998
  223DMC      H 2401   2.155   3.667   2.925
  223DMC      H 2402   2.302   3.600   2.368
  223DMC      H 2403   2.196   3.481   2.445
  223DMC      H 2404   2.150   3.655   2.442
  224DMC      C 2405   3.496   3.039   3.399
  224DMC      O 2406   3.610   3.067   3.317
  224DMC      C 2407   3.585   3.060   3.184
  224DMC      O 2408   3.477   3.031   3.133
  224DMC      O 2409   3.699   3.089   3.117
  224DMC      C 2410   3.687   3.085   2.976
  224DMC      H 2411   3.460   2.937   3.381
  224DMC      H 2412   3.526   3.048   3.503
  224DMC      H 2413   3.416   3.111   3.380
  224DMC      H 2414   3.784   3.109   2.932
  224DMC      H 2415   3.659   2.984   2.943
  224DMC      H 2416   3.614   3.158   2.942
  225DMC      C 2417   1.214   1.653   1.782
  225DMC      O 2418   1.187   1.611   1.916
  225DMC      C 2419   1.299   1.579   1.986
  225DMC      O 2420   1.414   1.582   1.943
  225DMC      O 2421   1.262   1.542   2.111
  225DMC      C 2422   1.370   1.504   2.195
  225DMC      H 2423   1.261   1.572   1.725
  225DMC      H 2424   1.118   1.677   1.734
  225DMC      H 2425   1.276   1.743   1.781
  225DMC      H 2426   1.329   1.476   2.293
  225DMC      H 2427   1.423   1.418   2.153
  225DMC      H 2428   1.438   1.588   2.209
  226DMC      C 2429   3.011   2.230   0.326
  226DMC      O 2430   3.088   2.307   0.419
  226DMC      C 2431   3.218   2.269   0.427
  226DMC      O 2432   3.270   2.178   0.364
  226DMC      O 2433   3.280   2.349   0.518
  226DMC      C 2434   3.417   2.319   0.536
  226DMC      H 2435   3.009   2.125   0.355
  226DMC      H 2436   2.909   2.269   0.326
  226DMC      H 2437   3.051   2.241   0.225
  226DMC      H 2438   3.458   2.388   0.611
  226DMC      H 2439   3.430   2.216   0.574
  226DMC      H 2440   3.473   2.332   0.443
  227DMC      C 2441   0.994   1.616   3.896
  227DMC      O 2442   1.013   1.474   3.888
  227DMC      C 2443   0.900   1.403   3.913
  227DMC      O 2444   0.791   1.449   3.940
  227DMC      O 2445   0.931   1.271   3.902
  227DMC      C 2446   0.821   1.184   3.925
  227DMC      H 2447   0.962   1.645   3.997
  227DMC      H 2448   1.090   1.665   3.875
  227DMC      H 2449   0.921   1.650   3.822
  227DMC      H 2450   0.856   1.081   3.915
  227DMC      H 2451   0.783   1.197   4.028
  227DMC      H 2452   0.742   1.202   3.852
  228DMC      C 2453   2.668   3.686   3.459
  228DMC      O 2454   2.538   3.737   3.492
  228DMC      C 2455   2.442   3.697   3.405
  228DMC      O 2456   2.457   3.626   3.307
  228DMC      O 2457   2.324   3.751   3.446
  228DMC      C 2458   2.213   3.718   3.364
  228DMC      H 2459   2.701   3.721   3.361
  228DMC      H 2460   2.739   3.722   3.534
  228DMC      H 2461   2.669   3.577   3.462
  228DMC      H 2462   2.124   3.767   3.405
  228DMC      H 2463   2.229   3.756   3.262
  228DMC      H 2464   2.197   3.610   3.363
  229DMC      C 2465   3.933   3.234   3.321
  229DMC      O 2466   3.841   3.124   3.318
  229DMC      C 2467   3.878   3.025   3.233
  229DMC      O 2468   3.978   3.023   3.164
  229DMC      O 2469   3.784   2.927   3.239
  229DMC      C 2470   3.811   2.816   3.155
  229DMC      H 2471   3.941   3.281   3.223
  229DMC      H 2472   3.895   3.308   3.392
  229DMC      H 2473   4.031   3.201   3.356
  229DMC      H 2474   3.729   2.744   3.166
  229DMC      H 2475   3.813   2.848   3.049
  229DMC      H 2476   3.904   2.768   3.183
  230DMC      C 2477   0.874   3.902   2.671
  230DMC      O 2478   0.889   3.781   2.746
  230DMC      C 2479   0.976   3.791   2.850
  230DMC      O 2480   1.039   3.891   2.881
  230DMC      O 2481   0.981   3.670   2.913
  230DMC      C 2482   1.069   3.667   3.024
  230DMC      H 2483   0.970   3.932   2.627
  230DMC      H 2484   0.803   3.884   2.591
  230DMC      H 2485   0.835   3.982   2.735
  230DMC      H 2486   1.067   3.566   3.067
  230DMC      H 2487   1.172   3.688   2.992
  230DMC      H 2488   1.037   3.738   3.100
  231DMC      C 2489   2.807   0.572   0.515
  231DMC      O 2490   2.941   0.596   0.472
  231DMC      C 2491   2.975   0.727   0.468
  231DMC      O 2492   2.902   0.821   0.495
  231DMC      O 2493   3.104   0.736   0.426
  231DMC      C 2494   3.152   0.869   0.417
  231DMC      H 2495   2.735   0.619   0.446
  231DMC      H 2496   2.789   0.464   0.516
  231DMC      H 2497   2.791   0.610   0.616
  231DMC      H 2498   3.256   0.866   0.382
  231DMC      H 2499   3.094   0.926   0.343
  231DMC      H 2500   3.150   0.918   0.514
  232DMC      C 2501   1.614   3.505   2.345
  232DMC      O 2502   1.640   3.528   2.206
  232DMC      C 2503   1.605   3.652   2.165
  232DMC      O 2504   1.554   3.739   2.234
  232DMC      O 2505   1.635   3.663   2.033
  232DMC      C 2506   1.602   3.788   1.976
  232DMC      H 2507   1.507   3.513   2.366
  232DMC      H 2508   1.646   3.403   2.369
  232DMC      H 2509   1.670   3.574   2.408
  232DMC      H 2510   1.630   3.786   1.870
  232DMC      H 2511   1.494   3.807   1.983
  232DMC      H 2512   1.658   3.868   2.025
  233DMC      C 2513   1.787   2.119   1.451
  233DMC      O 2514   1.655   2.068   1.429
  233DMC      C 2515   1.587   2.132   1.330
  233DMC      O 2516   1.629   2.225   1.263
  233DMC      O 2517   1.464   2.075   1.319
  233DMC      C 2518   1.383   2.133   1.219
  233DMC      H 2519   1.783   2.224   1.481
  233DMC      H 2520   1.833   2.061   1.531
  233DMC      H 2521   1.848   2.107   1.361
  233DMC      H 2522   1.286   2.081   1.219
  233DMC      H 2523   1.364   2.239   1.242
  233DMC      H 2524   1.429   2.122   1.121
  234DMC      C 2525   2.891   3.494   1.621
  234DMC      O 2526   2.899   3.351   1.618
  234DMC      C 2527   3.003   3.304   1.545
  234DMC      O 2528   3.085   3.372   1.485
  234DMC      O 2529   2.999   3.168   1.550
  234DMC      C 2530   3.104   3.106   1.476
  234DMC      H 2531   2.877   3.535   1.520
  234DMC      H 2532   2.805   3.522   1.682
  234DMC      H 2533   2.981   3.537   1.667
  234DMC      H 2534   3.092   2.997   1.486
  234DMC      H 2535   3.096   3.131   1.370
  234DMC      H 2536   3.201   3.134   1.517
  235DMC      C 2537   0.547   2.113   0.910
  235DMC      O 2538   0.530   1.971   0.910
  235DMC      C 2539   0.456   1.925   1.013
  235DMC      O 2540   0.405   1.993   1.101
  235DMC      O 2541   0.447   1.789   1.002
  235DMC      C 2542   0.371   1.728   1.105
  235DMC      H 2543   0.599   2.146   1.000
  235DMC      H 2544   0.608   2.140   0.823
  235DMC      H 2545   0.450   2.163   0.901
  235DMC      H 2546   0.370   1.620   1.088
  235DMC      H 2547   0.417   1.747   1.203
  235DMC      H 2548   0.268   1.764   1.104
  236DMC      C 2549   2.711   1.397   1.904
  236DMC      O 2550   2.607   1.304   1.872
  236DMC      C 2551   2.598   1.201   1.959
  236DMC      O 2552   2.670   1.183   2.057
  236DMC      O 2553   2.496   1.120   1.919
  236DMC      C 2554   2.476   1.007   2.003
  236DMC      H 2555   2.809   1.348   1.901
  236DMC      H 2556   2.710   1.477   1.829
  236DMC      H 2557   2.694   1.443   2.002
  236DMC      H 2558   2.393   0.949   1.962
  236DMC      H 2559   2.566   0.943   2.003
  236DMC      H 2560   2.451   1.038   2.104
  237DMC      C 2561   0.286   2.155   1.636
  237DMC      O 2562   0.353   2.029   1.649
  237DMC      C 2563   0.400   2.005   1.774
  237DMC      O 2564   0.389   2.081   1.870
  237DMC      O 2565   0.461   1.884   1.774
  237DMC      C 2566   0.515   1.847   1.900
  237DMC      H 2567   0.354   2.238   1.658
  237DMC      H 2568   0.252   2.164   1.532
  237DMC      H 2569   0.198   2.159   1.701
  237DMC      H 2570   0.562   1.749   1.890
  237DMC      H 2571   0.592   1.919   1.932
  237DMC      H 2572   0.436   1.840   1.975
  238DMC      C 2573   2.206   1.291   2.389
  238DMC      O 2574   2.260   1.250   2.516
  238DMC      C 2575   2.382   1.192   2.507
  238DMC      O 2576   2.445   1.174   2.404
  238DMC      O 2577   2.422   1.158   2.632
  238DMC      C 2578   2.549   1.096   2.637
  238DMC      H 2579   2.193   1.205   2.323
  238DMC      H 2580   2.108   1.336   2.407
  238DMC      H 2581   2.271   1.366   2.342
  238DMC      H 2582   2.572   1.072   2.742
  238DMC      H 2583   2.548   1.002   2.580
  238DMC      H 2584   2.626   1.164   2.599
  239EMC      C 2585   2.941   2.589   0.531
  239EMC      C 2586   2.969   2.590   0.383
  239EMC      O 2587   2.863   2.654   0.312
  239EMC      C 2588   2.759   2.572   0.278
  239EMC      O 2589   2.750   2.454   0.302
  239EMC      O 2590   2.667   2.647   0.212
  239EMC      C 2591   2.552   2.574   0.170
  239EMC      H 2592   2.923   2.692   0.568
  239EMC      H 2593   3.026   2.546   0.586
  239EMC      H 2594   2.852   2.532   0.554
  239EMC      H 2595   3.060   2.649   0.362
  239EMC      H 2596   2.989   2.489   0.345
  239EMC      H 2597   2.580   2.494   0.100
  239EMC      H 2598   2.485   2.643   0.118
  239EMC      H 2599   2.499   2.533   0.256
  240EMC      C 2600   2.266   0.806   1.278
  240EMC      C 2601   2.410   0.802   1.323
  240EMC      O 2602   2.438   0.913   1.408
  240EMC      C 2603   2.476   1.027   1.343
  240EMC      O 2604   2.487   1.041   1.223
  240EMC      O 2605   2.499   1.122   1.437
  240EMC      C 2606   2.540   1.248   1.383
  240EMC      H 2607   2.198   0.809   1.364
  240EMC      H 2608   2.241   0.717   1.218
  240EMC      H 2609   2.245   0.894   1.218
  240EMC      H 2610   2.427   0.711   1.383
  240EMC      H 2611   2.479   0.797   1.238
  240EMC      H 2612   2.634   1.238   1.327
  240EMC      H 2613   2.556   1.317   1.466
  240EMC      H 2614   2.461   1.289   1.319
  241EMC      C 2615   3.523   3.188   1.957
  241EMC      C 2616   3.499   3.089   2.068
  241EMC      O 2617   3.592   3.110   2.175
  241EMC      C 2618   3.712   3.045   2.161
  241EMC      O 2619   3.744   2.974   2.068
  241EMC      O 2620   3.788   3.075   2.269
  241EMC      C 2621   3.917   3.014   2.268
  241EMC      H 2622   3.518   3.291   1.995
  241EMC      H 2623   3.448   3.177   1.878
  241EMC      H 2624   3.622   3.175   1.913
  241EMC      H 2625   3.399   3.104   2.111
  241EMC      H 2626   3.502   2.986   2.031
  241EMC      H 2627   3.907   2.904   2.268
  241EMC      H 2628   3.969   3.044   2.358
  241EMC      H 2629   3.974   3.047   2.181
  242EMC      C 2630   2.137   2.611   1.994
  242EMC      C 2631   2.126   2.559   1.852
  242EMC      O 2632   1.992   2.575   1.803
  242EMC      C 2633   1.907   2.474   1.833
  242EMC      O 2634   1.934   2.373   1.896
  242EMC      O 2635   1.786   2.504   1.780
  242EMC      C 2636   1.686   2.405   1.804
  242EMC      H 2637   2.105   2.716   1.999
  242EMC      H 2638   2.241   2.604   2.029
  242EMC      H 2639   2.074   2.554   2.062
  242EMC      H 2640   2.191   2.618   1.786
  242EMC      H 2641   2.159   2.455   1.845
  242EMC      H 2642   1.714   2.309   1.758
  242EMC      H 2643   1.593   2.439   1.757
  242EMC      H 2644   1.668   2.393   1.911
  243EMC      C 2645   2.819   2.914   2.680
  243EMC      C 2646   2.907   2.801   2.634
  243EMC      O 2647   2.854   2.675   2.675
  243EMC      C 2648   2.890   2.634   2.799
  243EMC      O 2649   2.963   2.694   2.876
  243EMC      O 2650   2.831   2.515   2.823
  243EMC      C 2651   2.861   2.459   2.951
  243EMC      H 2652   2.716   2.901   2.644
  243EMC      H 2653   2.857   3.010   2.643
  243EMC      H 2654   2.814   2.918   2.789
  243EMC      H 2655   2.911   2.799   2.523
  243EMC      H 2656   3.011   2.814   2.668
  243EMC      H 2657   2.969   2.441   2.962
  243EMC      H 2658   2.809   2.364   2.960
  243EMC      H 2659   2.825   2.525   3.031
  244EMC      C 2660   0.872   3.606   1.487
  244EMC      C 2661   0.895   3.608   1.338
  244EMC      O 2662   0.923   3.476   1.290
  244EMC      C 2663   1.053   3.439   1.296
  244EMC      O 2664   1.146   3.506   1.338
  244EMC      O 2665   1.063   3.313   1.247
  244EMC      C 2666   1.195   3.260   1.248
  244EMC      H 2667   0.791   3.536   1.513
  244EMC      H 2668   0.844   3.706   1.524
  244EMC      H 2669   0.961   3.573   1.541
  244EMC      H 2670   0.803   3.642   1.287
  244EMC      H 2671   0.974   3.679   1.310
  244EMC      H 2672   1.262   3.321   1.184
  244EMC      H 2673   1.192   3.159   1.206
  244EMC      H 2674   1.234   3.255   1.349
  245EMC      C 2675   1.711   1.844   1.160
  245EMC      C 2676   1.576   1.778   1.142
  245EMC      O 2677   1.475   1.851   1.212
  245EMC      C 2678   1.459   1.818   1.343
  245EMC      O 2679   1.522   1.734   1.404
  245EMC      O 2680   1.360   1.896   1.393
  245EMC      C 2681   1.333   1.871   1.531
  245EMC      H 2682   1.707   1.949   1.127
  245EMC      H 2683   1.788   1.792   1.101
  245EMC      H 2684   1.741   1.845   1.264
  245EMC      H 2685   1.548   1.779   1.035
  245EMC      H 2686   1.579   1.673   1.173
  245EMC      H 2687   1.299   1.767   1.547
  245EMC      H 2688   1.252   1.938   1.562
  245EMC      H 2689   1.421   1.892   1.593
  246EMC      C 2690   3.820   2.023   3.355
  246EMC      C 2691   3.757   2.055   3.222
  246EMC      O 2692   3.741   2.196   3.206
  246EMC      C 2693   3.627   2.248   3.257
  246EMC      O 2694   3.539   2.187   3.314
  246EMC      O 2695   3.628   2.382   3.234
  246EMC      C 2696   3.512   2.450   3.283
  246EMC      H 2697   3.916   2.076   3.366
  246EMC      H 2698   3.838   1.916   3.366
  246EMC      H 2699   3.757   2.056   3.438
  246EMC      H 2700   3.822   2.020   3.140
  246EMC      H 2701   3.661   2.002   3.209
  246EMC      H 2702   3.421   2.412   3.234
  246EMC      H 2703   3.523   2.556   3.259
  246EMC      H 2704   3.505   2.440   3.391
  247EMC      C 2705   0.895   3.605   2.172
  247EMC      C 2706   0.776   3.520   2.134
  247EMC      O 2707   0.677   3.599   2.068
  247EMC      C 2708   0.588   3.662   2.149
  247EMC      O 2709   0.587   3.658   2.271
  247EMC      O 2710   0.502   3.732   2.071
  247EMC      C 2711   0.403   3.804   2.145
  247EMC      H 2712   0.936   3.655   2.083
  247EMC      H 2713   0.974   3.544   2.217
  247EMC      H 2714   0.867   3.683   2.242
  247EMC      H 2715   0.807   3.442   2.063
  247EMC      H 2716   0.734   3.468   2.222
  247EMC      H 2717   0.340   3.735   2.203
  247EMC      H 2718   0.339   3.856   2.073
  247EMC      H 2719   0.450   3.878   2.209
  248EMC      C 2720   2.718   2.144   0.884
  248EMC      C 2721   2.674   2.004   0.849
  248EMC      O 2722   2.594   2.004   0.730
  248EMC      C 2723   2.461   2.027   0.750
  248EMC      O 2724   2.406   2.046   0.857
  248EMC      O 2725   2.400   2.025   0.629
  248EMC      C 2726   2.259   2.048   0.635
  248EMC      H 2727   2.772   2.189   0.799
  248EMC      H 2728   2.785   2.143   0.971
  248EMC      H 2729   2.633   2.208   0.906
  248EMC      H 2730   2.762   1.941   0.827
  248EMC      H 2731   2.621   1.956   0.933
  248EMC      H 2732   2.210   1.969   0.694
  248EMC      H 2733   2.220   2.043   0.533
  248EMC      H 2734   2.238   2.146   0.676
  249EMC      C 2735   0.781   3.534   3.218
  249EMC      C 2736   0.684   3.638   3.270
  249EMC      O 2737   0.567   3.576   3.323
  249EMC      C 2738   0.469   3.550   3.231
  249EMC      O 2739   0.473   3.575   3.113
  249EMC      O 2740   0.366   3.491   3.297
  249EMC      C 2741   0.255   3.459   3.212
  249EMC      H 2742   0.805   3.461   3.297
  249EMC      H 2743   0.874   3.581   3.183
  249EMC      H 2744   0.738   3.478   3.135
  249EMC      H 2745   0.731   3.693   3.353
  249EMC      H 2746   0.660   3.712   3.193
  249EMC      H 2747   0.213   3.550   3.167
  249EMC      H 2748   0.178   3.413   3.274
  249EMC      H 2749   0.285   3.388   3.135
  250EMC      C 2750   1.344   0.285   1.002
  250EMC      C 2751   1.209   0.314   0.940
  250EMC      O 2752   1.143   0.420   1.009
  250EMC      C 2753   1.070   0.382   1.118
  250EMC      O 2754   1.057   0.269   1.159
  250EMC      O 2755   1.015   0.494   1.172
  250EMC      C 2756   0.935   0.468   1.287
  250EMC      H 2757   1.405   0.376   1.004
  250EMC      H 2758   1.397   0.208   0.945
  250EMC      H 2759   1.334   0.252   1.105
  250EMC      H 2760   1.222   0.347   0.835
  250EMC      H 2761   1.147   0.223   0.935
  250EMC      H 2762   0.850   0.403   1.262
  250EMC      H 2763   0.896   0.564   1.322
  250EMC      H 2764   0.996   0.425   1.367
  251EMC      C 2765   1.898   2.471   2.580
  251EMC      C 2766   1.789   2.376   2.625
  251EMC      O 2767   1.731   2.310   2.513
  251EMC      C 2768   1.630   2.377   2.451
  251EMC      O 2769   1.585   2.486   2.484
  251EMC      O 2770   1.586   2.301   2.348
  251EMC      C 2771   1.479   2.360   2.274
  251EMC      H 2772   1.974   2.417   2.522
  251EMC      H 2773   1.947   2.517   2.667
  251EMC      H 2774   1.859   2.549   2.516
  251EMC      H 2775   1.832   2.298   2.690
  251EMC      H 2776   1.713   2.428   2.685
  251EMC      H 2777   1.391   2.375   2.339
  251EMC      H 2778   1.451   2.291   2.194
  251EMC      H 2779   1.510   2.454   2.229
  252EMC      C 2780   2.791   1.487   3.267
  252EMC      C 2781   2.815   1.586   3.155
  252EMC      O 2782   2.949   1.577   3.108
  252EMC      C 2783   3.040   1.653   3.176
  252EMC      O 2784   3.016   1.725   3.270
  252EMC      O 2785   3.161   1.633   3.119
  252EMC      C 2786   3.266   1.707   3.180
  252EMC      H 2787   2.816   1.385   3.234
  252EMC      H 2788   2.686   1.489   3.300
  252EMC      H 2789   2.855   1.508   3.353
  252EMC      H 2790   2.749   1.562   3.070
  252EMC      H 2791   2.789   1.688   3.186
  252EMC      H 2792   3.248   1.815   3.172
  252EMC      H 2793   3.359   1.685   3.127
  252EMC      H 2794   3.279   1.678   3.284
  253EMC      C 2795   3.350   0.980   1.439
  253EMC      C 2796   3.490   1.035   1.420
  253EMC      O 2797   3.587   0.931   1.435
  253EMC      C 2798   3.628   0.908   1.563
  253EMC      O 2799   3.590   0.967   1.662
  253EMC      O 2800   3.719   0.808   1.560
  253EMC      C 2801   3.771   0.773   1.688
  253EMC      H 2802   3.332   0.897   1.370
  253EMC      H 2803   3.275   1.058   1.421
  253EMC      H 2804   3.336   0.941   1.540
  253EMC      H 2805   3.501   1.074   1.318
  253EMC      H 2806   3.509   1.119   1.488
  253EMC      H 2807   3.823   0.859   1.734
  253EMC      H 2808   3.843   0.692   1.675
  253EMC      H 2809   3.691   0.737   1.754
  254EMC      C 2810   0.794   3.181   1.222
  254EMC      C 2811   0.880   3.148   1.102
  254EMC      O 2812   0.836   3.027   1.040
  254EMC      C 2813   0.888   2.912   1.093
  254EMC      O 2814   0.967   2.905   1.185
  254EMC      O 2815   0.837   2.808   1.024
  254EMC      C 2816   0.884   2.680   1.068
  254EMC      H 2817   0.688   3.186   1.193
  254EMC      H 2818   0.823   3.277   1.266
  254EMC      H 2819   0.801   3.104   1.299
  254EMC      H 2820   0.871   3.227   1.027
  254EMC      H 2821   0.986   3.143   1.130
  254EMC      H 2822   0.993   2.673   1.056
  254EMC      H 2823   0.837   2.603   1.006
  254EMC      H 2824   0.856   2.663   1.172
  255EMC      C 2825   3.969   0.217   2.776
  255EMC      C 2826   3.844   0.177   2.850
  255EMC      O 2827   3.760   0.291   2.874
  255EMC      C 2828   3.789   0.361   2.987
  255EMC      O 2829   3.876   0.335   3.068
  255EMC      O 2830   3.702   0.465   2.995
  255EMC      C 2831   3.720   0.547   3.110
  255EMC      H 2832   3.944   0.269   2.683
  255EMC      H 2833   4.030   0.129   2.752
  255EMC      H 2834   4.029   0.286   2.835
  255EMC      H 2835   3.785   0.107   2.789
  255EMC      H 2836   3.867   0.124   2.944
  255EMC      H 2837   3.705   0.489   3.202
  255EMC      H 2838   3.646   0.627   3.107
  255EMC      H 2839   3.819   0.593   3.109
  256EMC      C 2840   1.805   3.346   1.465
  256EMC      C 2841   1.861   3.219   1.405
  256EMC      O 2842   1.757   3.142   1.343
  256EMC      C 2843   1.691   3.057   1.426
  256EMC      O 2844   1.712   3.041   1.544
  256EMC      O 2845   1.597   2.993   1.353
  256EMC      C 2846   1.519   2.899   1.428
  256EMC      H 2847   1.751   3.404   1.389
  256EMC      H 2848   1.885   3.408   1.507
  256EMC      H 2849   1.734   3.323   1.544
  256EMC      H 2850   1.933   3.245   1.325
  256EMC      H 2851   1.917   3.160   1.479
  256EMC      H 2852   1.583   2.820   1.469
  256EMC      H 2853   1.447   2.853   1.360
  256EMC      H 2854   1.464   2.950   1.507
  257EMC      C 2855   1.042   2.138   3.014
  257EMC      C 2856   1.124   2.041   2.933
  257EMC      O 2857   1.254   2.095   2.905
  257EMC      C 2858   1.261   2.174   2.794
  257EMC      O 2859   1.170   2.200   2.719
  257EMC      O 2860   1.389   2.217   2.783
  257EMC      C 2861   1.411   2.301   2.669
  257EMC      H 2862   1.095   2.165   3.107
  257EMC      H 2863   0.945   2.094   3.041
  257EMC      H 2864   1.024   2.230   2.959
  257EMC      H 2865   1.141   1.948   2.991
  257EMC      H 2866   1.072   2.011   2.841
  257EMC      H 2867   1.390   2.247   2.576
  257EMC      H 2868   1.517   2.331   2.669
  257EMC      H 2869   1.350   2.392   2.676
  258EMC      C 2870   0.613   1.165   2.041
  258EMC      C 2871   0.603   1.125   1.896
  258EMC      O 2872   0.675   1.217   1.813
  258EMC      C 2873   0.605   1.327   1.775
  258EMC      O 2874   0.490   1.353   1.803
  258EMC      O 2875   0.687   1.403   1.698
  258EMC      C 2876   0.627   1.523   1.650
  258EMC      H 2877   0.718   1.172   2.072
  258EMC      H 2878   0.563   1.091   2.106
  258EMC      H 2879   0.568   1.262   2.059
  258EMC      H 2880   0.648   1.026   1.881
  258EMC      H 2881   0.498   1.116   1.864
  258EMC      H 2882   0.540   1.500   1.586
  258EMC      H 2883   0.701   1.576   1.589
  258EMC      H 2884   0.597   1.587   1.733
  259EMC      C 2885   2.942   2.629   2.299
  259EMC      C 2886   2.908   2.572   2.163
  259EMC      O 2887   2.930   2.670   2.061
  259EMC      C 2888   2.825   2.754   2.037
  259EMC      O 2889   2.717   2.752   2.094
  259EMC      O 2890   2.861   2.840   1.939
  259EMC      C 2891   2.760   2.934   1.904
  259EMC      H 2892   3.045   2.666   2.301
  259EMC      H 2893   2.931   2.552   2.376
  259EMC      H 2894   2.877   2.712   2.324
  259EMC      H 2895   2.975   2.487   2.140
  259EMC      H 2896   2.806   2.533   2.160
  259EMC      H 2897   2.671   2.882   1.866
  259EMC      H 2898   2.799   2.998   1.824
  259EMC      H 2899   2.734   2.997   1.989
  260EMC      C 2900   0.779   2.942   2.056
  260EMC      C 2901   0.658   2.875   2.118
  260EMC      O 2902   0.696   2.755   2.186
  260EMC      C 2903   0.700   2.644   2.108
  260EMC      O 2904   0.675   2.638   1.989
  260EMC      O 2905   0.738   2.540   2.186
  260EMC      C 2906   0.746   2.415   2.117
  260EMC      H 2907   0.856   2.961   2.132
  260EMC      H 2908   0.751   3.037   2.009
  260EMC      H 2909   0.824   2.878   1.980
  260EMC      H 2910   0.614   2.942   2.194
  260EMC      H 2911   0.579   2.857   2.044
  260EMC      H 2912   0.648   2.387   2.076
  260EMC      H 2913   0.776   2.338   2.189
  260EMC      H 2914   0.821   2.420   2.038
  261EMC      C 2915   2.653   2.184   3.291
  261EMC      C 2916   2.733   2.268   3.193
  261EMC      O 2917   2.787   2.187   3.089
  261EMC      C 2918   2.907   2.129   3.117
  261EMC      O 2919   2.970   2.140   3.219
  261EMC      O 2920   2.943   2.056   3.008
  261EMC      C 2921   3.069   1.989   3.023
  261EMC      H 2922   2.574   2.129   3.238
  261EMC      H 2923   2.607   2.247   3.367
  261EMC      H 2924   2.716   2.110   3.340
  261EMC      H 2925   2.667   2.342   3.145
  261EMC      H 2926   2.811   2.325   3.245
  261EMC      H 2927   3.150   2.061   3.039
  261EMC      H 2928   3.089   1.933   2.931
  261EMC      H 2929   3.064   1.918   3.106
  262EMC      C 2930   2.778   1.302   0.959
  262EMC      C 2931   2.656   1.275   1.045
  262EMC      O 2932   2.658   1.140   1.094
  262EMC      C 2933   2.603   1.048   1.010
  262EMC      O 2934   2.554   1.070   0.902
  262EMC      O 2935   2.613   0.927   1.070
  262EMC      C 2936   2.558   0.820   0.994
  262EMC      H 2937   2.870   1.281   1.015
  262EMC      H 2938   2.780   1.407   0.927
  262EMC      H 2939   2.778   1.239   0.871
  262EMC      H 2940   2.658   1.341   1.134
  262EMC      H 2941   2.563   1.298   0.992
  262EMC      H 2942   2.451   0.835   0.976
  262EMC      H 2943   2.571   0.727   1.051
  262EMC      H 2944   2.612   0.809   0.899
  263EMC      C 2945   2.434   1.879   2.278
  263EMC      C 2946   2.534   1.832   2.175
  263EMC      O 2947   2.495   1.706   2.121
  263EMC      C 2948   2.536   1.597   2.191
  263EMC      O 2949   2.601   1.598   2.293
  263EMC      O 2950   2.490   1.486   2.127
  263EMC      C 2951   2.527   1.364   2.190
  263EMC      H 2952   2.333   1.884   2.234
  263EMC      H 2953   2.460   1.979   2.315
  263EMC      H 2954   2.428   1.811   2.362
  263EMC      H 2955   2.537   1.903   2.091
  263EMC      H 2956   2.635   1.828   2.217
  263EMC      H 2957   2.636   1.353   2.194
  263EMC      H 2958   2.486   1.281   2.131
  263EMC      H 2959   2.484   1.358   2.291
  264EMC      C 2960   0.676   1.544   2.805
  264EMC      C 2961   0.584   1.664   2.811
  264EMC      O 2962   0.510   1.664   2.933
  264EMC      C 2963   0.394   1.592   2.930
  264EMC      O 2964   0.350   1.530   2.835
  264EMC      O 2965   0.336   1.602   3.052
  264EMC      C 2966   0.213   1.531   3.064
  264EMC      H 2967   0.743   1.542   2.892
  264EMC      H 2968   0.738   1.547   2.714
  264EMC      H 2969   0.620   1.451   2.805
  264EMC      H 2970   0.644   1.756   2.810
  264EMC      H 2971   0.519   1.668   2.723
  264EMC      H 2972   0.139   1.570   2.993
  264EMC      H 2973   0.175   1.546   3.165
  264EMC      H 2974   0.229   1.424   3.048
  265EMC      C 2975   1.538   1.893   3.003
  265EMC      C 2976   1.552   1.990   3.119
  265EMC      O 2977   1.461   1.956   3.223
  265EMC      C 2978   1.336   2.010   3.211
  265EMC      O 2979   1.298   2.082   3.121
  265EMC      O 2980   1.263   1.969   3.317
  265EMC      C 2981   1.129   2.019   3.317
  265EMC      H 2982   1.552   1.789   3.038
  265EMC      H 2983   1.613   1.914   2.925
  265EMC      H 2984   1.439   1.899   2.959
  265EMC      H 2985   1.654   1.982   3.161
  265EMC      H 2986   1.540   2.094   3.085
  265EMC      H 2987   1.128   2.129   3.321
  265EMC      H 2988   1.078   1.981   3.406
  265EMC      H 2989   1.075   1.983   3.229
  266EMC      C 2990   2.382   3.426   1.413
  266EMC      C 2991   2.492   3.486   1.329
  266EMC      O 2992   2.558   3.385   1.252
  266EMC      C 2993   2.660   3.321   1.316
  266EMC      O 2994   2.699   3.343   1.429
  266EMC      O 2995   2.711   3.229   1.231
  266EMC      C 2996   2.821   3.155   1.286
  266EMC      H 2997   2.311   3.370   1.350
  266EMC      H 2998   2.327   3.504   1.467
  266EMC      H 2999   2.422   3.355   1.486
  266EMC      H 3000   2.448   3.557   1.256
  266EMC      H 3001   2.563   3.544   1.390
  266EMC      H 3002   2.904   3.221   1.311
  266EMC      H 3003   2.855   3.084   1.210
  266EMC      H 3004   2.789   3.098   1.374
  267EMC      C 3005   3.927   2.157   2.712
  267EMC      C 3006   3.828   2.153   2.826
  267EMC      O 3007   3.839   2.030   2.898
  267EMC      C 3008   3.765   1.928   2.848
  267EMC      O 3009   3.692   1.932   2.751
  267EMC      O 3010   3.786   1.819   2.927
  267EMC      C 3011   3.714   1.703   2.886
  267EMC      H 3012   4.030   2.141   2.749
  267EMC      H 3013   3.924   2.254   2.661
  267EMC      H 3014   3.907   2.079   2.639
  267EMC      H 3015   3.851   2.234   2.898
  267EMC      H 3016   3.726   2.171   2.791
  267EMC      H 3017   3.606   1.721   2.890
  267EMC      H 3018   3.738   1.622   2.955
  267EMC      H 3019   3.744   1.672   2.786
  268EMC      C 3020   0.358   0.397   3.094
  268EMC      C 3021   0.469   0.358   2.998
  268EMC      O 3022   0.524   0.475   2.937
  268EMC      C 3023   0.460   0.517   2.825
  268EMC      O 3024   0.363   0.466   2.773
  268EMC      O 3025   0.525   0.627   2.779
  268EMC      C 3026   0.468   0.683   2.660
  268EMC      H 3027   0.394   0.468   3.169
  268EMC      H 3028   0.319   0.308   3.146
  268EMC      H 3029   0.275   0.445   3.041
  268EMC      H 3030   0.550   0.310   3.054
  268EMC      H 3031   0.434   0.285   2.924
  268EMC      H 3032   0.472   0.610   2.578
  268EMC      H 3033   0.527   0.770   2.632
  268EMC      H 3034   0.365   0.715   2.678
  269EMC      C 3035   2.570   0.903   2.978
  269EMC      C 3036   2.654   0.884   3.101
  269EMC      O 3037   2.593   0.946   3.214
  269EMC      C 3038   2.623   1.078   3.231
  269EMC      O 3039   2.695   1.145   3.160
  269EMC      O 3040   2.557   1.121   3.342
  269EMC      C 3041   2.579   1.259   3.372
  269EMC      H 3042   2.468   0.865   2.994
  269EMC      H 3043   2.613   0.850   2.892
  269EMC      H 3044   2.560   1.009   2.952
  269EMC      H 3045   2.663   0.776   3.124
  269EMC      H 3046   2.757   0.920   3.085
  269EMC      H 3047   2.686   1.278   3.391
  269EMC      H 3048   2.523   1.283   3.462
  269EMC      H 3049   2.543   1.322   3.290
  270EMC      C 3050   0.456   0.431   0.716
  270EMC      C 3051   0.561   0.518   0.651
  270EMC      O 3052   0.677   0.442   0.618
  270EMC      C 3053   0.769   0.428   0.718
  270EMC      O 3054   0.761   0.476   0.830
  270EMC      O 3055   0.871   0.353   0.671
  270EMC      C 3056   0.975   0.331   0.766
  270EMC      H 3057   0.431   0.347   0.651
  270EMC      H 3058   0.365   0.489   0.736
  270EMC      H 3059   0.492   0.389   0.810
  270EMC      H 3060   0.522   0.560   0.557
  270EMC      H 3061   0.587   0.605   0.715
  270EMC      H 3062   1.021   0.427   0.797
  270EMC      H 3063   1.053   0.270   0.718
  270EMC      H 3064   0.938   0.277   0.853
  271EMC      C 3065   1.896   3.471   3.280
  271EMC      C 3066   1.788   3.569   3.242
  271EMC      O 3067   1.835   3.660   3.142
  271EMC      C 3068   1.899   3.770   3.190
  271EMC      O 3069   1.918   3.797   3.307
  271EMC      O 3070   1.937   3.846   3.084
  271EMC      C 3071   2.006   3.965   3.119
  271EMC      H 3072   1.933   3.418   3.191
  271EMC      H 3073   1.858   3.397   3.352
  271EMC      H 3074   1.982   3.522   3.324
  271EMC      H 3075   1.702   3.515   3.198
  271EMC      H 3076   1.748   3.622   3.330
  271EMC      H 3077   1.941   4.031   3.180
  271EMC      H 3078   2.031   4.018   3.027
  271EMC      H 3079   2.098   3.942   3.173
  272EMC      C 3080   1.087   3.945   3.624
  272EMC      C 3081   0.947   3.893   3.597
  272EMC      O 3082   0.883   3.858   3.720
  272EMC      C 3083   0.907   3.732   3.764
  272EMC      O 3084   0.977   3.648   3.709
  272EMC      O 3085   0.840   3.714   3.880
  272EMC      C 3086   0.856   3.585   3.938
  272EMC      H 3087   1.084   4.030   3.693
  272EMC      H 3088   1.134   3.978   3.530
  272EMC      H 3089   1.150   3.869   3.669
  272EMC      H 3090   0.886   3.973   3.551
  272EMC      H 3091   0.948   3.810   3.526
  272EMC      H 3092   0.818   3.507   3.870
  272EMC      H 3093   0.798   3.581   4.030
  272EMC      H 3094   0.961   3.567   3.962
  273EMC      C 3095   3.319   3.401   0.936
  273EMC      C 3096   3.306   3.503   0.825
  273EMC      O 3097   3.427   3.511   0.750
  273EMC      C 3098   3.521   3.596   0.800
  273EMC      O 3099   3.511   3.664   0.899
  273EMC      O 3100   3.629   3.591   0.717
  273EMC      C 3101   3.736   3.676   0.757
  273EMC      H 3102   3.347   3.303   0.895
  273EMC      H 3103   3.224   3.391   0.990
  273EMC      H 3104   3.396   3.429   1.007
  273EMC      H 3105   3.227   3.472   0.755
  273EMC      H 3106   3.276   3.602   0.865
  273EMC      H 3107   3.704   3.781   0.758
  273EMC      H 3108   3.817   3.665   0.685
  273EMC      H 3109   3.774   3.647   0.856
  274EMC      C 3110   0.560   2.003   3.801
  274EMC      C 3111   0.665   1.928   3.722
  274EMC      O 3112   0.774   2.015   3.689
  274EMC      C 3113   0.759   2.086   3.575
  274EMC      O 3114   0.664   2.083   3.500
  274EMC      O 3115   0.870   2.163   3.559
  274EMC      C 3116   0.868   2.244   3.441
  274EMC      H 3117   0.604   2.048   3.891
  274EMC      H 3118   0.479   1.935   3.831
  274EMC      H 3119   0.517   2.084   3.742
  274EMC      H 3120   0.706   1.847   3.784
  274EMC      H 3121   0.623   1.881   3.633
  274EMC      H 3122   0.862   2.181   3.351
  274EMC      H 3123   0.961   2.300   3.438
  274EMC      H 3124   0.785   2.314   3.445
  275EMC      C 3125   2.952   1.566   0.780
  275EMC      C 3126   3.046   1.509   0.883
  275EMC      O 3127   3.142   1.423   0.821
  275EMC      C 3128   3.102   1.294   0.804
  275EMC      O 3129   2.996   1.246   0.837
  275EMC      O 3130   3.204   1.227   0.745
  275EMC      C 3131   3.176   1.089   0.721
  275EMC      H 3132   3.008   1.619   0.701
  275EMC      H 3133   2.881   1.637   0.826
  275EMC      H 3134   2.894   1.488   0.730
  275EMC      H 3135   3.102   1.590   0.932
  275EMC      H 3136   2.991   1.457   0.963
  275EMC      H 3137   3.158   1.036   0.816
  275EMC      H 3138   3.264   1.044   0.674
  275EMC      H 3139   3.091   1.078   0.654
  276EMC      C 3140   2.129   0.229   3.441
  276EMC      C 3141   2.261   0.248   3.370
  276EMC      O 3142   2.254   0.358   3.279
  276EMC      C 3143   2.207   0.327   3.155
  276EMC      O 3144   2.172   0.217   3.116
  276EMC      O 3145   2.207   0.441   3.081
  276EMC      C 3146   2.160   0.423   2.948
  276EMC      H 3147   2.099   0.322   3.492
  276EMC      H 3148   2.136   0.149   3.516
  276EMC      H 3149   2.050   0.204   3.371
  276EMC      H 3150   2.340   0.273   3.444
  276EMC      H 3151   2.294   0.155   3.321
  276EMC      H 3152   2.224   0.353   2.893
  276EMC      H 3153   2.164   0.520   2.897
  276EMC      H 3154   2.056   0.388   2.948
  277EMC      C 3155   0.477   1.167   3.260
  277EMC      C 3156   0.457   1.280   3.162
  277EMC      O 3157   0.572   1.295   3.078
  277EMC      C 3158   0.670   1.375   3.129
  277EMC      O 3159   0.668   1.433   3.235
  277EMC      O 3160   0.771   1.378   3.038
  277EMC      C 3161   0.881   1.459   3.079
  277EMC      H 3162   0.501   1.074   3.208
  277EMC      H 3163   0.386   1.151   3.320
  277EMC      H 3164   0.560   1.188   3.328
  277EMC      H 3165   0.372   1.256   3.095
  277EMC      H 3166   0.430   1.374   3.212
  277EMC      H 3167   0.850   1.564   3.092
  277EMC      H 3168   0.957   1.456   2.999
  277EMC      H 3169   0.926   1.421   3.170
  278EMC      C 3170   2.629   1.538   0.289
  278EMC      C 3171   2.534   1.646   0.338
  278EMC      O 3172   2.570   1.689   0.469
  278EMC      C 3173   2.516   1.616   0.570
  278EMC      O 3174   2.443   1.520   0.559
  278EMC      O 3175   2.559   1.669   0.687
  278EMC      C 3176   2.511   1.602   0.803
  278EMC      H 3177   2.733   1.574   0.294
  278EMC      H 3178   2.606   1.510   0.186
  278EMC      H 3179   2.623   1.450   0.352
  278EMC      H 3180   2.542   1.734   0.272
  278EMC      H 3181   2.429   1.613   0.332
  278EMC      H 3182   2.401   1.606   0.808
  278EMC      H 3183   2.551   1.652   0.892
  278EMC      H 3184   2.545   1.498   0.805
  279EMC      C 3185   0.544   1.932   2.650
  279EMC      C 3186   0.539   2.041   2.545
  279EMC      O 3187   0.473   2.157   2.596
  279EMC      C 3188   0.337   2.156   2.583
  279EMC      O 3189   0.269   2.069   2.534
  279EMC      O 3190   0.290   2.272   2.636
  279EMC      C 3191   0.148   2.286   2.630
  279EMC      H 3192   0.592   1.969   2.741
  279EMC      H 3193   0.600   1.845   2.613
  279EMC      H 3194   0.444   1.899   2.678
  279EMC      H 3195   0.641   2.071   2.518
  279EMC      H 3196   0.492   2.005   2.452
  279EMC      H 3197   0.114   2.285   2.525
  279EMC      H 3198   0.121   2.382   2.674
  279EMC      H 3199   0.100   2.206   2.686
  280EMC      C 3200   3.605   0.203   2.656
  280EMC      C 3201   3.483   0.251   2.580
  280EMC      O 3202   3.458   0.389   2.608
  280EMC      C 3203   3.382   0.413   2.718
  280EMC      O 3204   3.335   0.329   2.793
  280EMC      O 3205   3.368   0.547   2.731
  280EMC      C 3206   3.289   0.586   2.843
  280EMC      H 3207   3.692   0.266   2.632
  280EMC      H 3208   3.628   0.099   2.629
  280EMC      H 3209   3.589   0.209   2.763
  280EMC      H 3210   3.502   0.244   2.471
  280EMC      H 3211   3.396   0.189   2.600
  280EMC      H 3212   3.187   0.546   2.835
  280EMC      H 3213   3.283   0.695   2.844
  280EMC      H 3214   3.336   0.553   2.936
  281EMC      C 3215   0.796   2.798   0.237
  281EMC      C 3216   0.905   2.710   0.293
  281EMC      O 3217   0.888   2.693   0.434
  281EMC      C 3218   0.945   2.790   0.511
  281EMC      O 3219   1.007   2.887   0.471
  281EMC      O 3220   0.920   2.760   0.641
  281EMC      C 3221   0.974   2.854   0.734
  281EMC      H 3222   0.697   2.757   0.261
  281EMC      H 3223   0.805   2.805   0.128
  281EMC      H 3224   0.800   2.898   0.279
  281EMC      H 3225   0.898   2.609   0.249
  281EMC      H 3226   1.005   2.749   0.268
  281EMC      H 3227   1.084   2.858   0.725
  281EMC      H 3228   0.949   2.821   0.835
  281EMC      H 3229   0.931   2.953   0.718
  282EMC      C 3230   3.024   2.292   1.826
  282EMC      C 3231   3.083   2.240   1.954
  282EMC      O 3232   3.185   2.328   2.003
  282EMC      C 3233   3.309   2.306   1.952
  282EMC      O 3234   3.341   2.220   1.873
  282EMC      O 3235   3.393   2.398   2.008
  282EMC      C 3236   3.528   2.386   1.964
  282EMC      H 3237   2.986   2.394   1.840
  282EMC      H 3238   2.942   2.227   1.792
  282EMC      H 3239   3.099   2.297   1.747
  282EMC      H 3240   3.005   2.235   2.032
  282EMC      H 3241   3.121   2.137   1.943
  282EMC      H 3242   3.570   2.288   1.991
  282EMC      H 3243   3.587   2.464   2.014
  282EMC      H 3244   3.535   2.403   1.856
  283EMC      C 3245   0.762   1.309   0.421
  283EMC      C 3246   0.729   1.297   0.274
  283EMC      O 3247   0.732   1.426   0.211
  283EMC      C 3248   0.615   1.496   0.218
  283EMC      O 3249   0.512   1.459   0.270
  283EMC      O 3250   0.634   1.614   0.154
  283EMC      C 3251   0.519   1.698   0.153
  283EMC      H 3252   0.859   1.359   0.435
  283EMC      H 3253   0.766   1.210   0.468
  283EMC      H 3254   0.688   1.369   0.473
  283EMC      H 3255   0.805   1.235   0.223
  283EMC      H 3256   0.633   1.246   0.258
  283EMC      H 3257   0.436   1.650   0.100
  283EMC      H 3258   0.545   1.790   0.100
  283EMC      H 3259   0.490   1.725   0.255
  284EMC      C 3260   2.611   1.697   1.671
  284EMC      C 3261   2.575   1.721   1.816
  284EMC      O 3262   2.534   1.599   1.879
  284EMC      C 3263   2.402   1.568   1.865
  284EMC      O 3264   2.319   1.634   1.807
  284EMC      O 3265   2.380   1.451   1.929
  284EMC      C 3266   2.245   1.406   1.924
  284EMC      H 3267   2.688   1.620   1.663
  284EMC      H 3268   2.648   1.789   1.625
  284EMC      H 3269   2.524   1.662   1.615
  284EMC      H 3270   2.664   1.756   1.871
  284EMC      H 3271   2.499   1.799   1.827
  284EMC      H 3272   2.178   1.479   1.972
  284EMC      H 3273   2.238   1.311   1.978
  284EMC      H 3274   2.215   1.389   1.820
  285EMC      C 3275   3.093   2.362   1.243
  285EMC      C 3276   2.983   2.345   1.141
  285EMC      O 3277   2.947   2.207   1.128
  285EMC      C 3278   3.021   2.135   1.040
  285EMC      O 3279   3.113   2.177   0.973
  285EMC      O 3280   2.975   2.008   1.041
  285EMC      C 3281   3.045   1.921   0.952
  285EMC      H 3282   3.063   2.320   1.340
  285EMC      H 3283   3.116   2.469   1.257
  285EMC      H 3284   3.184   2.311   1.212
  285EMC      H 3285   2.892   2.399   1.174
  285EMC      H 3286   3.011   2.389   1.044
  285EMC      H 3287   3.035   1.955   0.848
  285EMC      H 3288   3.000   1.821   0.960
  285EMC      H 3289   3.150   1.913   0.980
  286EMC      C 3290   1.036   3.447   1.876
  286EMC      C 3291   1.183   3.472   1.854
  286EMC      O 3292   1.216   3.608   1.881
  286EMC      C 3293   1.199   3.694   1.776
  286EMC      O 3294   1.160   3.665   1.665
  286EMC      O 3295   1.233   3.818   1.818
  286EMC      C 3296   1.220   3.919   1.718
  286EMC      H 3297   1.007   3.475   1.979
  286EMC      H 3298   1.012   3.340   1.862
  286EMC      H 3299   0.975   3.506   1.808
  286EMC      H 3300   1.243   3.410   1.923
  286EMC      H 3301   1.214   3.442   1.752
  286EMC      H 3302   1.286   3.897   1.632
  286EMC      H 3303   1.251   4.014   1.761
  286EMC      H 3304   1.116   3.927   1.685
  287EMC      C 3305   3.565   2.811   2.574
  287EMC      C 3306   3.584   2.731   2.447
  287EMC      O 3307   3.546   2.808   2.333
  287EMC      C 3308   3.414   2.802   2.300
  287EMC      O 3309   3.329   2.738   2.359
  287EMC      O 3310   3.395   2.879   2.191
  287EMC      C 3311   3.259   2.882   2.145
  287EMC      H 3312   3.620   2.906   2.568
  287EMC      H 3313   3.600   2.755   2.661
  287EMC      H 3314   3.460   2.836   2.589
  287EMC      H 3315   3.691   2.706   2.435
  287EMC      H 3316   3.531   2.635   2.452
  287EMC      H 3317   3.226   2.781   2.116
  287EMC      H 3318   3.255   2.946   2.057
  287EMC      H 3319   3.194   2.923   2.222
  288EMC      C 3320   0.473   1.397   2.548
  288EMC      C 3321   0.593   1.325   2.490
  288EMC      O 3322   0.682   1.419   2.429
  288EMC      C 3323   0.655   1.449   2.300
  288EMC      O 3324   0.563   1.405   2.233
  288EMC      O 3325   0.748   1.538   2.257
  288EMC      C 3326   0.731   1.579   2.121
  288EMC      H 3327   0.505   1.475   2.619
  288EMC      H 3328   0.407   1.326   2.601
  288EMC      H 3329   0.415   1.447   2.471
  288EMC      H 3330   0.649   1.275   2.571
  288EMC      H 3331   0.562   1.246   2.420
  288EMC      H 3332   0.740   1.493   2.053
  288EMC      H 3333   0.811   1.650   2.097
  288EMC      H 3334   0.635   1.629   2.108
  289EMC      C 3335   2.507   3.380   3.017
  289EMC      C 3336   2.579   3.512   3.025
  289EMC      O 3337   2.721   3.493   3.020
  289EMC      C 3338   2.780   3.469   3.140
  289EMC      O 3339   2.725   3.463   3.248
  289EMC      O 3340   2.913   3.453   3.118
  289EMC      C 3341   2.989   3.427   3.236
  289EMC      H 3342   2.537   3.325   2.927
  289EMC      H 3343   2.399   3.394   3.015
  289EMC      H 3344   2.532   3.316   3.102
  289EMC      H 3345   2.552   3.574   2.938
  289EMC      H 3346   2.549   3.569   3.114
  289EMC      H 3347   2.981   3.511   3.306
  289EMC      H 3348   3.094   3.417   3.207
  289EMC      H 3349   2.956   3.334   3.283
  290EMC      C 3350   2.952   3.971   2.789
  290EMC      C 3351   2.927   3.823   2.808
  290EMC      O 3352   2.954   3.784   2.943
  290EMC      C 3353   3.084   3.752   2.969
  290EMC      O 3354   3.175   3.753   2.889
  290EMC      O 3355   3.092   3.718   3.100
  290EMC      C 3356   3.224   3.681   3.141
  290EMC      H 3357   2.893   4.030   2.861
  290EMC      H 3358   2.925   4.003   2.688
  290EMC      H 3359   3.057   3.996   2.807
  290EMC      H 3360   2.820   3.801   2.789
  290EMC      H 3361   2.984   3.763   2.736
  290EMC      H 3362   3.259   3.593   3.086
  290EMC      H 3363   3.220   3.655   3.247
  290EMC      H 3364   3.293   3.764   3.128
  291EMC      C 3365   2.510   2.538   1.554
  291EMC      C 3366   2.363   2.567   1.532
  291EMC      O 3367   2.315   2.496   1.418
  291EMC      C 3368   2.331   2.560   1.299
  291EMC      O 3369   2.381   2.669   1.282
  291EMC      O 3370   2.280   2.480   1.202
  291EMC      C 3371   2.290   2.536   1.070
  291EMC      H 3372   2.528   2.430   1.563
  291EMC      H 3373   2.546   2.588   1.645
  291EMC      H 3374   2.570   2.573   1.470
  291EMC      H 3375   2.306   2.531   1.619
  291EMC      H 3376   2.344   2.675   1.525
  291EMC      H 3377   2.234   2.630   1.063
  291EMC      H 3378   2.246   2.464   1.000
  291EMC      H 3379   2.395   2.551   1.043
  292EMC      C 3380   1.871   0.732   0.184
  292EMC      C 3381   1.981   0.629   0.195
  292EMC      O 3382   1.926   0.498   0.207
  292EMC      C 3383   1.895   0.459   0.334
  292EMC      O 3384   1.910   0.524   0.435
  292EMC      O 3385   1.844   0.334   0.327
  292EMC      C 3386   1.807   0.280   0.454
  292EMC      H 3387   1.805   0.709   0.100
  292EMC      H 3388   1.914   0.833   0.169
  292EMC      H 3389   1.810   0.734   0.274
  292EMC      H 3390   2.042   0.630   0.104
  292EMC      H 3391   2.050   0.652   0.278
  292EMC      H 3392   1.895   0.272   0.520
  292EMC      H 3393   1.768   0.179   0.438
  292EMC      H 3394   1.729   0.340   0.500
  293EMC      C 3395   2.258   2.194   3.204
  293EMC      C 3396   2.349   2.119   3.109
  293EMC      O 3397   2.278   2.082   2.990
  293EMC      C 3398   2.210   1.965   2.997
  293EMC      O 3399   2.204   1.891   3.093
  293EMC      O 3400   2.149   1.946   2.877
  293EMC      C 3401   2.073   1.825   2.870
  293EMC      H 3402   2.215   2.282   3.154
  293EMC      H 3403   2.314   2.228   3.292
  293EMC      H 3404   2.175   2.132   3.236
  293EMC      H 3405   2.432   2.184   3.078
  293EMC      H 3406   2.394   2.031   3.158
  293EMC      H 3407   2.138   1.737   2.884
  293EMC      H 3408   2.029   1.819   2.770
  293EMC      H 3409   1.992   1.826   2.943
  294EMC      C 3410   3.398   0.183   3.616
  294EMC      C 3411   3.259   0.239   3.596
  294EMC      O 3412   3.240   0.278   3.460
  294EMC      C 3413   3.281   0.405   3.430
  294EMC      O 3414   3.330   0.485   3.507
  294EMC      O 3415   3.256   0.426   3.298
  294EMC      C 3416   3.293   0.556   3.252
  294EMC      H 3417   3.417   0.100   3.547
  294EMC      H 3418   3.411   0.147   3.719
  294EMC      H 3419   3.474   0.259   3.596
  294EMC      H 3420   3.184   0.161   3.618
  294EMC      H 3421   3.238   0.322   3.666
  294EMC      H 3422   3.237   0.634   3.305
  294EMC      H 3423   3.269   0.562   3.146
  294EMC      H 3424   3.401   0.571   3.264
  295EMC      C 3425   1.516   1.096   2.215
  295EMC      C 3426   1.470   1.015   2.335
  295EMC      O 3427   1.582   0.973   2.413
  295EMC      C 3428   1.640   0.856   2.373
  295EMC      O 3429   1.605   0.787   2.279
  295EMC      O 3430   1.744   0.831   2.456
  295EMC      C 3431   1.814   0.710   2.426
  295EMC      H 3432   1.577   1.181   2.247
  295EMC      H 3433   1.430   1.133   2.159
  295EMC      H 3434   1.577   1.036   2.148
  295EMC      H 3435   1.407   1.078   2.400
  295EMC      H 3436   1.407   0.930   2.304
  295EMC      H 3437   1.747   0.623   2.435
  295EMC      H 3438   1.895   0.699   2.499
  295EMC      H 3439   1.858   0.715   2.326
  296EMC      C 3440   2.087   1.583   3.141
  296EMC      C 3441   2.034   1.484   3.039
  296EMC      O 3442   1.916   1.535   2.976
  296EMC      C 3443   1.800   1.509   3.042
  296EMC      O 3444   1.789   1.447   3.146
  296EMC      O 3445   1.698   1.563   2.971
  296EMC      C 3446   1.569   1.543   3.029
  296EMC      H 3447   2.105   1.681   3.094
  296EMC      H 3448   2.181   1.547   3.184
  296EMC      H 3449   2.016   1.598   3.221
  296EMC      H 3450   2.109   1.470   2.959
  296EMC      H 3451   2.017   1.385   3.083
  296EMC      H 3452   1.546   1.435   3.035
  296EMC      H 3453   1.495   1.590   2.964
  296EMC      H 3454   1.564   1.589   3.128
  297EMC      C 3455   2.558   3.296   0.210
  297EMC      C 3456   2.699   3.276   0.261
  297EMC      O 3457   2.701   3.267   0.403
  297EMC      C 3458   2.709   3.387   0.468
  297EMC      O 3459   2.715   3.497   0.417
  297EMC      O 3460   2.709   3.361   0.601
  297EMC      C 3461   2.717   3.478   0.683
  297EMC      H 3462   2.492   3.216   0.246
  297EMC      H 3463   2.556   3.297   0.100
  297EMC      H 3464   2.516   3.390   0.246
  297EMC      H 3465   2.739   3.181   0.222
  297EMC      H 3466   2.767   3.355   0.224
  297EMC      H 3467   2.811   3.532   0.663
  297EMC      H 3468   2.717   3.447   0.788
  297EMC      H 3469   2.631   3.543   0.666
  298EMC      C 3470   2.276   0.664   3.424
  298EMC      C 3471   2.254   0.794   3.349
  298EMC      O 3472   2.124   0.797   3.291
  298EMC      C 3473   2.114   0.740   3.168
  298EMC      O 3474   2.204   0.689   3.105
  298EMC      O 3475   1.985   0.752   3.127
  298EMC      C 3476   1.960   0.696   2.998
  298EMC      H 3477   2.198   0.650   3.500
  298EMC      H 3478   2.374   0.664   3.474
  298EMC      H 3479   2.271   0.579   3.357
  298EMC      H 3480   2.260   0.879   3.420
  298EMC      H 3481   2.333   0.811   3.274
  298EMC      H 3482   2.019   0.747   2.921
  298EMC      H 3483   1.854   0.710   2.975
  298EMC      H 3484   1.981   0.589   2.998
  299EMC      C 3485   3.671   1.018   0.946
  299EMC      C 3486   3.585   0.977   1.063
  299EMC      O 3487   3.455   1.035   1.054
  299EMC      C 3488   3.444   1.160   1.107
  299EMC      O 3489   3.532   1.224   1.160
  299EMC      O 3490   3.316   1.201   1.090
  299EMC      C 3491   3.289   1.331   1.141
  299EMC      H 3492   3.621   0.992   0.851
  299EMC      H 3493   3.769   0.968   0.949
  299EMC      H 3494   3.687   1.126   0.944
  299EMC      H 3495   3.571   0.867   1.062
  299EMC      H 3496   3.634   1.001   1.159
  299EMC      H 3497   3.307   1.335   1.249
  299EMC      H 3498   3.184   1.354   1.122
  299EMC      H 3499   3.350   1.406   1.090
  300EMC      C 3500   2.188   3.216   3.570
  300EMC      C 3501   2.081   3.252   3.670
  300EMC      O 3502   2.090   3.390   3.706
  300EMC      C 3503   2.177   3.417   3.808
  300EMC      O 3504   2.244   3.337   3.869
  300EMC      O 3505   2.174   3.551   3.829
  300EMC      C 3506   2.260   3.595   3.934
  300EMC      H 3507   2.181   3.281   3.481
  300EMC      H 3508   2.177   3.111   3.537
  300EMC      H 3509   2.287   3.228   3.611
  300EMC      H 3510   1.981   3.237   3.625
  300EMC      H 3511   2.085   3.186   3.758
  300EMC      H 3512   2.231   3.549   4.030
  300EMC      H 3513   2.251   3.703   3.943
  300EMC      H 3514   2.364   3.571   3.911
  301EMC      C 3515   3.470   2.705   3.565
  301EMC      C 3516   3.488   2.574   3.638
  301EMC      O 3517   3.373   2.491   3.622
  301EMC      C 3518   3.274   2.512   3.713
  301EMC      O 3519   3.275   2.593   3.804
  301EMC      O 3520   3.173   2.427   3.684
  301EMC      C 3521   3.061   2.438   3.773
  301EMC      H 3522   3.447   2.688   3.459
  301EMC      H 3523   3.561   2.767   3.572
  301EMC      H 3524   3.387   2.762   3.607
  301EMC      H 3525   3.574   2.519   3.595
  301EMC      H 3526   3.513   2.590   3.744
  301EMC      H 3527   3.090   2.414   3.876
  301EMC      H 3528   2.986   2.365   3.741
  301EMC      H 3529   3.017   2.537   3.767
  302EMC      C 3530   3.582   1.976   1.615
  302EMC      C 3531   3.602   1.842   1.682
  302EMC      O 3532   3.545   1.842   1.813
  302EMC      C 3533   3.626   1.889   1.912
  302EMC      O 3534   3.740   1.929   1.898
  302EMC      O 3535   3.557   1.883   2.029
  302EMC      C 3536   3.631   1.928   2.142
  302EMC      H 3537   3.475   2.002   1.612
  302EMC      H 3538   3.620   1.974   1.512
  302EMC      H 3539   3.632   2.055   1.669
  302EMC      H 3540   3.550   1.763   1.625
  302EMC      H 3541   3.708   1.813   1.684
  302EMC      H 3542   3.721   1.867   2.157
  302EMC      H 3543   3.568   1.919   2.230
  302EMC      H 3544   3.658   2.034   2.130
  303EMC      C 3545   3.361   2.996   1.275
  303EMC      C 3546   3.477   2.901   1.257
  303EMC      O 3547   3.601   2.969   1.280
  303EMC      C 3548   3.653   3.033   1.172
  303EMC      O 3549   3.605   3.036   1.060
  303EMC      O 3550   3.769   3.091   1.210
  303EMC      C 3551   3.836   3.162   1.105
  303EMC      H 3552   3.364   3.042   1.375
  303EMC      H 3553   3.266   2.943   1.264
  303EMC      H 3554   3.364   3.077   1.203
  303EMC      H 3555   3.471   2.820   1.332
  303EMC      H 3556   3.475   2.853   1.159
  303EMC      H 3557   3.863   3.094   1.023
  303EMC      H 3558   3.927   3.205   1.146
  303EMC      H 3559   3.773   3.243   1.068
  304EMC      C 3560   1.425   1.988   0.889
  304EMC      C 3561   1.324   1.897   0.954
  304EMC      O 3562   1.194   1.915   0.896
  304EMC      C 3563   1.120   2.015   0.950
  304EMC      O 3564   1.152   2.087   1.042
  304EMC      O 3565   1.001   2.019   0.884
  304EMC      C 3566   0.912   2.120   0.932
  304EMC      H 3567   1.427   1.972   0.780
  304EMC      H 3568   1.525   1.970   0.929
  304EMC      H 3569   1.400   2.093   0.905
  304EMC      H 3570   1.352   1.792   0.937
  304EMC      H 3571   1.321   1.911   1.063
  304EMC      H 3572   0.886   2.102   1.037
  304EMC      H 3573   0.820   2.114   0.873
  304EMC      H 3574   0.956   2.219   0.919
  305EMC      C 3575   2.014   2.275   3.401
  305EMC      C 3576   1.903   2.373   3.370
  305EMC      O 3577   1.933   2.501   3.426
  305EMC      C 3578   1.894   2.519   3.555
  305EMC      O 3579   1.838   2.437   3.625
  305EMC      O 3580   1.929   2.644   3.592
  305EMC      C 3581   1.894   2.677   3.727
  305EMC      H 3582   2.110   2.313   3.365
  305EMC      H 3583   1.994   2.178   3.353
  305EMC      H 3584   2.024   2.259   3.508
  305EMC      H 3585   1.895   2.387   3.261
  305EMC      H 3586   1.805   2.336   3.404
  305EMC      H 3587   1.785   2.672   3.741
  305EMC      H 3588   1.927   2.779   3.747
  305EMC      H 3589   1.945   2.610   3.797
  306EMC      C 3590   0.805   2.362   1.146
  306EMC      C 3591   0.841   2.251   1.241
  306EMC      O 3592   0.753   2.140   1.225
  306EMC      C 3593   0.638   2.147   1.297
  306EMC      O 3594   0.606   2.236   1.373
  306EMC      O 3595   0.566   2.035   1.271
  306EMC      C 3596   0.442   2.029   1.341
  306EMC      H 3597   0.805   2.326   1.042
  306EMC      H 3598   0.877   2.445   1.153
  306EMC      H 3599   0.706   2.401   1.166
  306EMC      H 3600   0.943   2.214   1.218
  306EMC      H 3601   0.844   2.286   1.345
  306EMC      H 3602   0.458   2.027   1.450
  306EMC      H 3603   0.392   1.936   1.313
  306EMC      H 3604   0.377   2.112   1.313
  307EMC      C 3605   1.956   1.618   2.523
  307EMC      C 3606   1.863   1.705   2.442
  307EMC      O 3607   1.932   1.821   2.393
  307EMC      C 3608   1.934   1.926   2.479
  307EMC      O 3609   1.884   1.931   2.589
  307EMC      O 3610   2.003   2.027   2.419
  307EMC      C 3611   2.013   2.146   2.497
  307EMC      H 3612   2.045   1.591   2.465
  307EMC      H 3613   1.905   1.526   2.555
  307EMC      H 3614   1.991   1.671   2.612
  307EMC      H 3615   1.829   1.649   2.353
  307EMC      H 3616   1.773   1.732   2.498
  307EMC      H 3617   1.913   2.187   2.518
  307EMC      H 3618   2.069   2.220   2.440
  307EMC      H 3619   2.067   2.125   2.590
  308EMC      C 3620   0.653   0.979   1.208
  308EMC      C 3621   0.559   0.934   1.098
  308EMC      O 3622   0.494   0.812   1.134
  308EMC      C 3623   0.563   0.699   1.103
  308EMC      O 3624   0.671   0.693   1.049
  308EMC      O 3625   0.488   0.593   1.143
  308EMC      C 3626   0.548   0.466   1.116
  308EMC      H 3627   0.599   0.988   1.303
  308EMC      H 3628   0.698   1.076   1.184
  308EMC      H 3629   0.732   0.907   1.224
  308EMC      H 3630   0.480   1.010   1.084
  308EMC      H 3631   0.611   0.926   1.002
  308EMC      H 3632   0.563   0.452   1.008
  308EMC      H 3633   0.481   0.388   1.152
  308EMC      H 3634   0.643   0.457   1.170
  309EMC      C 3635   2.568   0.809   2.274
  309EMC      C 3636   2.544   0.660   2.288
  309EMC      O 3637   2.464   0.633   2.403
  309EMC      C 3638   2.533   0.619   2.520
  309EMC      O 3639   2.654   0.627   2.533
  309EMC      O 3640   2.443   0.594   2.618
  309EMC      C 3641   2.502   0.576   2.747
  309EMC      H 3642   2.473   0.864   2.271
  309EMC      H 3643   2.625   0.831   2.182
  309EMC      H 3644   2.625   0.848   2.359
  309EMC      H 3645   2.488   0.624   2.201
  309EMC      H 3646   2.638   0.604   2.290
  309EMC      H 3647   2.571   0.490   2.747
  309EMC      H 3648   2.422   0.557   2.819
  309EMC      H 3649   2.555   0.667   2.778
  310EMC      C 3650   3.387   2.814   2.942
  310EMC      C 3651   3.329   2.707   3.031
  310EMC      O 3652   3.429   2.612   3.067
  310EMC      C 3653   3.448   2.510   2.979
  310EMC      O 3654   3.387   2.493   2.875
  310EMC      O 3655   3.545   2.430   3.028
  310EMC      C 3656   3.575   2.318   2.944
  310EMC      H 3657   3.473   2.863   2.991
  310EMC      H 3658   3.312   2.891   2.919
  310EMC      H 3659   3.424   2.773   2.848
  310EMC      H 3660   3.292   2.752   3.125
  310EMC      H 3661   3.242   2.658   2.984
  310EMC      H 3662   3.487   2.253   2.933
  310EMC      H 3663   3.654   2.260   2.993
  310EMC      H 3664   3.611   2.351   2.847
  311EMC      C 3665   1.635   2.497   1.459
  311EMC      C 3666   1.765   2.575   1.461
  311EMC      O 3667   1.862   2.512   1.378
  311EMC      C 3668   1.935   2.414   1.438
  311EMC      O 3669   1.925   2.377   1.553
  311EMC      O 3670   2.022   2.365   1.346
  311EMC      C 3671   2.106   2.261   1.395
  311EMC      H 3672   1.599   2.486   1.356
  311EMC      H 3673   1.558   2.549   1.518
  311EMC      H 3674   1.648   2.397   1.499
  311EMC      H 3675   1.748   2.676   1.420
  311EMC      H 3676   1.802   2.588   1.564
  311EMC      H 3677   2.169   2.297   1.478
  311EMC      H 3678   2.172   2.229   1.314
  311EMC      H 3679   2.046   2.175   1.427
  312EMC      C 3680   1.320   3.188   3.967
  312EMC      C 3681   1.249   3.141   3.842
  312EMC      O 3682   1.135   3.062   3.875
  312EMC      C 3683   1.159   2.930   3.895
  312EMC      O 3684   1.267   2.875   3.886
  312EMC      O 3685   1.042   2.870   3.925
  312EMC      C 3686   1.052   2.729   3.948
  312EMC      H 3687   1.251   3.243   4.033
  312EMC      H 3688   1.404   3.254   3.942
  312EMC      H 3689   1.358   3.104   4.025
  312EMC      H 3690   1.212   3.229   3.786
  312EMC      H 3691   1.317   3.088   3.775
  312EMC      H 3692   1.089   2.678   3.858
  312EMC      H 3693   0.953   2.691   3.971
  312EMC      H 3694   1.118   2.709   4.033
  313EMC      C 3695   3.374   1.730   3.589
  313EMC      C 3696   3.400   1.640   3.708
  313EMC      O 3697   3.518   1.680   3.777
  313EMC      C 3698   3.634   1.627   3.730
  313EMC      O 3699   3.645   1.551   3.636
  313EMC      O 3700   3.736   1.675   3.805
  313EMC      C 3701   3.864   1.627   3.766
  313EMC      H 3702   3.369   1.835   3.621
  313EMC      H 3703   3.280   1.703   3.539
  313EMC      H 3704   3.455   1.723   3.516
  313EMC      H 3705   3.316   1.648   3.780
  313EMC      H 3706   3.404   1.534   3.678
  313EMC      H 3707   3.870   1.518   3.776
  313EMC      H 3708   3.939   1.671   3.833
  313EMC      H 3709   3.888   1.658   3.664
  314EMC      C 3710   1.286   2.688   3.652
  314EMC      C 3711   1.273   2.837   3.635
  314EMC      O 3712   1.264   2.872   3.497
  314EMC      C 3713   1.382   2.889   3.433
  314EMC      O 3714   1.493   2.877   3.482
  314EMC      O 3715   1.356   2.921   3.304
  314EMC      C 3716   1.473   2.942   3.224
  314EMC      H 3717   1.202   2.636   3.603
  314EMC      H 3718   1.287   2.660   3.758
  314EMC      H 3719   1.377   2.651   3.606
  314EMC      H 3720   1.180   2.872   3.683
  314EMC      H 3721   1.356   2.891   3.685
  314EMC      H 3722   1.532   3.026   3.264
  314EMC      H 3723   1.440   2.967   3.123
  314EMC      H 3724   1.533   2.851   3.220
  315EMC      C 3725   1.555   3.021   2.062
  315EMC      C 3726   1.457   3.018   2.177
  315EMC      O 3727   1.526   3.008   2.301
  315EMC      C 3728   1.555   2.881   2.341
  315EMC      O 3729   1.528   2.779   2.280
  315EMC      O 3730   1.620   2.888   2.459
  315EMC      C 3731   1.657   2.761   2.513
  315EMC      H 3732   1.627   3.103   2.075
  315EMC      H 3733   1.502   3.036   1.966
  315EMC      H 3734   1.612   2.929   2.056
  315EMC      H 3735   1.400   3.113   2.179
  315EMC      H 3736   1.383   2.938   2.164
  315EMC      H 3737   1.568   2.699   2.532
  315EMC      H 3738   1.708   2.778   2.608
  315EMC      H 3739   1.726   2.710   2.446
  316EMC      C 3740   2.857   3.056   2.358
  316EMC      C 3741   2.715   3.005   2.353
  316EMC      O 3742   2.639   3.076   2.256
  316EMC      C 3743   2.581   3.191   2.301
  316EMC      O 3744   2.589   3.236   2.413
  316EMC      O 3745   2.513   3.246   2.197
  316EMC      C 3746   2.447   3.368   2.230
  316EMC      H 3747   2.903   3.051   2.258
  316EMC      H 3748   2.918   2.998   2.428
  316EMC      H 3749   2.860   3.161   2.389
  316EMC      H 3750   2.715   2.899   2.322
  316EMC      H 3751   2.668   3.008   2.453
  316EMC      H 3752   2.372   3.352   2.309
  316EMC      H 3753   2.395   3.404   2.141
  316EMC      H 3754   2.519   3.444   2.261
  317EMC      C 3755   3.631   0.828   2.956
  317EMC      C 3756   3.616   0.948   2.866
  317EMC      O 3757   3.482   0.998   2.869
  317EMC      C 3758   3.396   0.938   2.782
  317EMC      O 3759   3.424   0.849   2.703
  317EMC      O 3760   3.274   0.995   2.797
  317EMC      C 3761   3.174   0.942   2.711
  317EMC      H 3762   3.599   0.853   3.059
  317EMC      H 3763   3.735   0.794   2.959
  317EMC      H 3764   3.568   0.746   2.923
  317EMC      H 3765   3.681   1.030   2.902
  317EMC      H 3766   3.649   0.926   2.763
  317EMC      H 3767   3.201   0.959   2.605
  317EMC      H 3768   3.080   0.995   2.731
  317EMC      H 3769   3.158   0.836   2.731
  318EMC      C 3770   3.257   1.266   3.399
  318EMC      C 3771   3.308   1.408   3.385
  318EMC      O 3772   3.279   1.458   3.254
  318EMC      C 3773   3.372   1.430   3.159
  318EMC      O 3774   3.475   1.367   3.176
  318EMC      O 3775   3.330   1.484   3.042
  318EMC      C 3776   3.420   1.462   2.933
  318EMC      H 3777   3.150   1.261   3.377
  318EMC      H 3778   3.273   1.230   3.501
  318EMC      H 3779   3.307   1.199   3.330
  318EMC      H 3780   3.255   1.474   3.456
  318EMC      H 3781   3.415   1.415   3.409
  318EMC      H 3782   3.518   1.507   2.953
  318EMC      H 3783   3.377   1.509   2.844
  318EMC      H 3784   3.430   1.355   2.913
  319EMC      C 3785   0.156   1.257   2.328
  319EMC      C 3786   0.304   1.227   2.324
  319EMC      O 3787   0.330   1.116   2.237
  319EMC      C 3788   0.320   0.993   2.295
  319EMC      O 3789   0.293   0.971   2.412
  319EMC      O 3790   0.347   0.900   2.201
  319EMC      C 3791   0.341   0.766   2.249
  319EMC      H 3792   0.117   1.275   2.227
  319EMC      H 3793   0.137   1.346   2.390
  319EMC      H 3794   0.100   1.174   2.370
  319EMC      H 3795   0.359   1.313   2.282
  319EMC      H 3796   0.345   1.210   2.424
  319EMC      H 3797   0.415   0.749   2.328
  319EMC      H 3798   0.364   0.699   2.165
  319EMC      H 3799   0.240   0.742   2.284
  320EMC      C 3800   2.429   2.428   0.610
  320EMC      C 3801   2.580   2.434   0.605
  320EMC      O 3802   2.627   2.564   0.641
  320EMC      C 3803   2.633   2.653   0.538
  320EMC      O 3804   2.604   2.632   0.422
  320EMC      O 3805   2.678   2.771   0.589
  320EMC      C 3806   2.690   2.875   0.491
  320EMC      H 3807   2.393   2.457   0.709
  320EMC      H 3808   2.394   2.326   0.588
  320EMC      H 3809   2.385   2.496   0.537
  320EMC      H 3810   2.623   2.363   0.678
  320EMC      H 3811   2.619   2.402   0.506
  320EMC      H 3812   2.763   2.847   0.413
  320EMC      H 3813   2.728   2.964   0.542
  320EMC      H 3814   2.593   2.898   0.448
  321EMC      C 3815   1.072   0.943   3.144
  321EMC      C 3816   1.027   1.084   3.175
  321EMC      O 3817   1.135   1.162   3.226
  321EMC      C 3818   1.155   1.153   3.360
  321EMC      O 3819   1.090   1.087   3.439
  321EMC      O 3820   1.261   1.232   3.392
  321EMC      C 3821   1.294   1.233   3.531
  321EMC      H 3822   1.157   0.945   3.074
  321EMC      H 3823   0.990   0.885   3.100
  321EMC      H 3824   1.106   0.892   3.234
  321EMC      H 3825   0.992   1.133   3.083
  321EMC      H 3826   0.941   1.085   3.244
  321EMC      H 3827   1.210   1.272   3.590
  321EMC      H 3828   1.379   1.299   3.545
  321EMC      H 3829   1.321   1.133   3.564
  322EMC      C 3830   2.090   3.496   1.898
  322EMC      C 3831   2.081   3.513   1.748
  322EMC      O 3832   2.195   3.582   1.698
  322EMC      C 3833   2.186   3.718   1.700
  322EMC      O 3834   2.092   3.783   1.739
  322EMC      O 3835   2.302   3.768   1.650
  322EMC      C 3836   2.306   3.910   1.645
  322EMC      H 3837   2.183   3.445   1.926
  322EMC      H 3838   2.005   3.438   1.936
  322EMC      H 3839   2.090   3.593   1.948
  322EMC      H 3840   2.080   3.413   1.700
  322EMC      H 3841   1.987   3.562   1.718
  322EMC      H 3842   2.227   3.950   1.580
  322EMC      H 3843   2.403   3.940   1.603
  322EMC      H 3844   2.298   3.952   1.746
  323EMC      C 3845   1.975   2.953   0.821
  323EMC      C 3846   2.012   3.029   0.946
  323EMC      O 3847   2.091   2.948   1.033
  323EMC      C 3848   2.021   2.868   1.118
  323EMC      O 3849   1.900   2.860   1.127
  323EMC      O 3850   2.110   2.798   1.192
  323EMC      C 3851   2.050   2.709   1.287
  323EMC      H 3852   2.065   2.916   0.770
  323EMC      H 3853   1.919   3.017   0.751
  323EMC      H 3854   1.913   2.866   0.844
  323EMC      H 3855   2.073   3.117   0.920
  323EMC      H 3856   1.922   3.068   0.997
  323EMC      H 3857   1.990   2.766   1.359
  323EMC      H 3858   2.130   2.658   1.341
  323EMC      H 3859   1.990   2.634   1.236
  324EMC      C 3860   3.269   1.199   0.341
  324EMC      C 3861   3.166   1.310   0.344
  324EMC      O 3862   3.227   1.435   0.374
  324EMC      C 3863   3.242   1.463   0.507
  324EMC      O 3864   3.208   1.392   0.599
  324EMC      O 3865   3.302   1.584   0.518
  324EMC      C 3866   3.323   1.626   0.652
  324EMC      H 3867   3.349   1.223   0.269
  324EMC      H 3868   3.223   1.104   0.312
  324EMC      H 3869   3.317   1.187   0.438
  324EMC      H 3870   3.119   1.320   0.245
  324EMC      H 3871   3.085   1.286   0.415
  324EMC      H 3872   3.227   1.635   0.706
  324EMC      H 3873   3.371   1.724   0.650
  324EMC      H 3874   3.389   1.556   0.704
  325EMC      C 3875   1.622   1.202   3.950
  325EMC      C 3876   1.703   1.084   3.900
  325EMC      O 3877   1.814   1.129   3.823
  325EMC      C 3878   1.789   1.150   3.691
  325EMC      O 3879   1.683   1.134   3.635
  325EMC      O 3880   1.904   1.192   3.633
  325EMC      C 3881   1.892   1.218   3.493
  325EMC      H 3882   1.685   1.271   4.007
  325EMC      H 3883   1.539   1.168   4.014
  325EMC      H 3884   1.579   1.259   3.867
  325EMC      H 3885   1.744   1.029   3.986
  325EMC      H 3886   1.640   1.013   3.844
  325EMC      H 3887   1.864   1.127   3.439
  325EMC      H 3888   1.990   1.251   3.456
  325EMC      H 3889   1.820   1.298   3.475
  326EMC      C 3890   3.794   1.662   0.223
  326EMC      C 3891   3.802   1.703   0.369
  326EMC      O 3892   3.672   1.702   0.429
  326EMC      C 3893   3.601   1.817   0.414
  326EMC      O 3894   3.638   1.917   0.357
  326EMC      O 3895   3.482   1.799   0.476
  326EMC      C 3896   3.396   1.913   0.469
  326EMC      H 3897   3.746   1.564   0.213
  326EMC      H 3898   3.895   1.657   0.179
  326EMC      H 3899   3.735   1.733   0.166
  326EMC      H 3900   3.864   1.630   0.424
  326EMC      H 3901   3.852   1.800   0.381
  326EMC      H 3902   3.442   2.000   0.518
  326EMC      H 3903   3.303   1.889   0.521
  326EMC      H 3904   3.372   1.937   0.365
  327EMC      C 3905   2.032   1.103   3.184
  327EMC      C 3906   1.889   1.140   3.155
  327EMC      O 3907   1.800   1.064   3.238
  327EMC      C 3908   1.764   0.943   3.188
  327EMC      O 3909   1.800   0.895   3.083
  327EMC      O 3910   1.681   0.884   3.278
  327EMC      C 3911   1.634   0.755   3.238
  327EMC      H 3912   2.055   1.116   3.291
  327EMC      H 3913   2.101   1.165   3.125
  327EMC      H 3914   2.052   0.998   3.160
  327EMC      H 3915   1.873   1.246   3.180
  327EMC      H 3916   1.865   1.129   3.049
  327EMC      H 3917   1.577   0.761   3.144
  327EMC      H 3918   1.568   0.717   3.316
  327EMC      H 3919   1.718   0.686   3.228
  328EMC      C 3920   0.607   2.407   2.454
  328EMC      C 3921   0.725   2.390   2.547
  328EMC      O 3922   0.825   2.488   2.519
  328EMC      C 3923   0.914   2.455   2.422
  328EMC      O 3924   0.916   2.351   2.358
  328EMC      O 3925   1.001   2.558   2.408
  328EMC      C 3926   1.101   2.536   2.308
  328EMC      H 3927   0.566   2.508   2.461
  328EMC      H 3928   0.527   2.335   2.479
  328EMC      H 3929   0.636   2.391   2.350
  328EMC      H 3930   0.693   2.406   2.651
  328EMC      H 3931   0.766   2.288   2.542
  328EMC      H 3932   1.163   2.449   2.334
  328EMC      H 3933   1.166   2.624   2.305
  328EMC      H 3934   1.055   2.524   2.210
  329EMC      C 3935   2.149   0.474   2.588
  329EMC      C 3936   2.184   0.588   2.495
  329EMC      O 3937   2.253   0.691   2.565
  329EMC      C 3938   2.174   0.783   2.626
  329EMC      O 3939   2.052   0.785   2.625
  329EMC      O 3940   2.254   0.873   2.688
  329EMC      C 3941   2.183   0.976   2.757
  329EMC      H 3942   2.240   0.435   2.637
  329EMC      H 3943   2.102   0.392   2.532
  329EMC      H 3944   2.082   0.506   2.666
  329EMC      H 3945   2.252   0.552   2.416
  329EMC      H 3946   2.095   0.626   2.443
  329EMC      H 3947   2.122   1.035   2.686
  329EMC      H 3948   2.256   1.043   2.802
  329EMC      H 3949   2.121   0.934   2.836
  330EMC      C 3950   1.194   1.155   1.583
  330EMC      C 3951   1.107   1.035   1.552
  330EMC      O 3952   1.115   0.939   1.657
  330EMC      C 3953   1.218   0.850   1.646
  330EMC      O 3954   1.301   0.846   1.557
  330EMC      O 3955   1.212   0.766   1.752
  330EMC      C 3956   1.314   0.667   1.753
  330EMC      H 3957   1.166   1.198   1.681
  330EMC      H 3958   1.183   1.232   1.506
  330EMC      H 3959   1.299   1.127   1.590
  330EMC      H 3960   1.001   1.067   1.546
  330EMC      H 3961   1.132   0.992   1.454
  330EMC      H 3962   1.307   0.602   1.664
  330EMC      H 3963   1.300   0.605   1.842
  330EMC      H 3964   1.413   0.713   1.759
  331EMC      C 3965   0.710   1.882   3.103
  331EMC      C 3966   0.617   1.987   3.160
  331EMC      O 3967   0.493   1.928   3.199
  331EMC      C 3968   0.400   1.918   3.101
  331EMC      O 3969   0.413   1.954   2.986
  331EMC      O 3970   0.289   1.860   3.154
  331EMC      C 3971   0.182   1.844   3.061
  331EMC      H 3972   0.726   1.801   3.176
  331EMC      H 3973   0.808   1.926   3.079
  331EMC      H 3974   0.669   1.837   3.013
  331EMC      H 3975   0.662   2.031   3.251
  331EMC      H 3976   0.603   2.070   3.089
  331EMC      H 3977   0.149   1.941   3.023
  331EMC      H 3978   0.099   1.797   3.114
  331EMC      H 3979   0.212   1.778   2.980
  332EMC      C 3980   3.415   3.700   2.029
  332EMC      C 3981   3.482   3.740   2.158
  332EMC      O 3982   3.614   3.787   2.135
  332EMC      C 3983   3.710   3.691   2.130
  332EMC      O 3984   3.693   3.571   2.145
  332EMC      O 3985   3.829   3.752   2.107
  332EMC      C 3986   3.940   3.662   2.100
  332EMC      H 3987   3.416   3.785   1.958
  332EMC      H 3988   3.311   3.670   2.046
  332EMC      H 3989   3.467   3.618   1.981
  332EMC      H 3990   3.426   3.823   2.205
  332EMC      H 3991   3.480   3.657   2.231
  332EMC      H 3992   3.953   3.608   2.195
  332EMC      H 3993   4.030   3.720   2.081
  332EMC      H 3994   3.927   3.591   2.017
  333EMC      C 3995   1.666   2.813   3.000
  333EMC      C 3996   1.704   2.817   2.854
  333EMC      O 3997   1.597   2.869   2.775
  333EMC      C 3998   1.505   2.777   2.735
  333EMC      O 3999   1.507   2.658   2.759
  333EMC      O 4000   1.411   2.842   2.662
  333EMC      C 4001   1.308   2.757   2.612
  333EMC      H 4002   1.634   2.913   3.035
  333EMC      H 4003   1.750   2.779   3.062
  333EMC      H 4004   1.582   2.746   3.017
  333EMC      H 4005   1.790   2.886   2.840
  333EMC      H 4006   1.737   2.719   2.818
  333EMC      H 4007   1.349   2.680   2.545
  333EMC      H 4008   1.237   2.818   2.555
  333EMC      H 4009   1.253   2.710   2.694
  334EMC      C 4010   3.581   1.166   3.748
  334EMC      C 4011   3.462   1.190   3.658
  334EMC      O 4012   3.399   1.314   3.690
  334EMC      C 4013   3.307   1.309   3.790
  334EMC      O 4014   3.273   1.210   3.852
  334EMC      O 4015   3.257   1.434   3.808
  334EMC      C 4016   3.158   1.443   3.910
  334EMC      H 4017   3.652   1.250   3.741
  334EMC      H 4018   3.633   1.073   3.720
  334EMC      H 4019   3.551   1.158   3.852
  334EMC      H 4020   3.495   1.197   3.553
  334EMC      H 4021   3.391   1.106   3.663
  334EMC      H 4022   3.071   1.380   3.885
  334EMC      H 4023   3.125   1.547   3.916
  334EMC      H 4024   3.200   1.414   4.007
  335EMC      C 4025   2.550   3.312   3.547
  335EMC      C 4026   2.590   3.172   3.505
  335EMC      O 4027   2.475   3.088   3.493
  335EMC      C 4028   2.434   3.028   3.608
  335EMC      O 4029   2.486   3.039   3.717
  335EMC      O 4030   2.324   2.954   3.579
  335EMC      C 4031   2.271   2.884   3.692
  335EMC      H 4032   2.478   3.354   3.477
  335EMC      H 4033   2.638   3.377   3.551
  335EMC      H 4034   2.503   3.312   3.645
  335EMC      H 4035   2.638   3.175   3.406
  335EMC      H 4036   2.664   3.129   3.574
  335EMC      H 4037   2.344   2.813   3.732
  335EMC      H 4038   2.184   2.827   3.658
  335EMC      H 4039   2.238   2.954   3.769
  336EMC      C 4040   3.532   2.831   1.613
  336EMC      C 4041   3.424   2.905   1.688
  336EMC      O 4042   3.393   2.839   1.811
  336EMC      C 4043   3.300   2.740   1.801
  336EMC      O 4044   3.242   2.705   1.700
  336EMC      O 4045   3.282   2.688   1.925
  336EMC      C 4046   3.186   2.582   1.930
  336EMC      H 4047   3.621   2.819   1.676
  336EMC      H 4048   3.561   2.885   1.522
  336EMC      H 4049   3.499   2.731   1.585
  336EMC      H 4050   3.460   3.006   1.715
  336EMC      H 4051   3.335   2.920   1.626
  336EMC      H 4052   3.087   2.619   1.899
  336EMC      H 4053   3.179   2.547   2.033
  336EMC      H 4054   3.217   2.499   1.867
  337EMC      C 4055   0.601   1.691   0.570
  337EMC      C 4056   0.547   1.762   0.692
  337EMC      O 4057   0.408   1.794   0.675
  337EMC      C 4058   0.384   1.912   0.612
  337EMC      O 4059   0.467   1.991   0.571
  337EMC      O 4060   0.250   1.927   0.603
  337EMC      C 4061   0.209   2.049   0.540
  337EMC      H 4062   0.541   1.602   0.547
  337EMC      H 4063   0.705   1.661   0.586
  337EMC      H 4064   0.596   1.755   0.482
  337EMC      H 4065   0.553   1.694   0.780
  337EMC      H 4066   0.606   1.850   0.717
  337EMC      H 4067   0.245   2.136   0.596
  337EMC      H 4068   0.100   2.051   0.538
  337EMC      H 4069   0.245   2.052   0.437
  338EMC      C 4070   1.696   1.306   1.728
  338EMC      C 4071   1.587   1.409   1.713
  338EMC      O 4072   1.509   1.418   1.832
  338EMC      C 4073   1.406   1.329   1.841
  338EMC      O 4074   1.375   1.246   1.758
  338EMC      O 4075   1.343   1.350   1.959
  338EMC      C 4076   1.232   1.264   1.982
  338EMC      H 4077   1.759   1.329   1.815
  338EMC      H 4078   1.760   1.303   1.638
  338EMC      H 4079   1.655   1.206   1.744
  338EMC      H 4080   1.631   1.508   1.696
  338EMC      H 4081   1.524   1.389   1.625
  338EMC      H 4082   1.155   1.279   1.905
  338EMC      H 4083   1.188   1.289   2.079
  338EMC      H 4084   1.264   1.160   1.985
  339EMC      C 4085   0.939   2.429   3.203
  339EMC      C 4086   0.951   2.465   3.057
  339EMC      O 4087   1.083   2.436   3.008
  339EMC      C 4088   1.174   2.535   3.027
  339EMC      O 4089   1.155   2.643   3.079
  339EMC      O 4090   1.293   2.492   2.976
  339EMC      C 4091   1.399   2.586   2.989
  339EMC      H 4092   0.966   2.323   3.219
  339EMC      H 4093   0.837   2.445   3.239
  339EMC      H 4094   1.007   2.488   3.264
  339EMC      H 4095   0.881   2.404   2.997
  339EMC      H 4096   0.924   2.570   3.039
  339EMC      H 4097   1.375   2.679   2.934
  339EMC      H 4098   1.489   2.542   2.945
  339EMC      H 4099   1.419   2.608   3.094
  340EMC      C 4100   0.311   2.389   2.898
  340EMC      C 4101   0.410   2.430   2.791
  340EMC      O 4102   0.484   2.318   2.745
  340EMC      C 4103   0.595   2.288   2.818
  340EMC      O 4104   0.636   2.348   2.916
  340EMC      O 4105   0.654   2.179   2.762
  340EMC      C 4106   0.773   2.137   2.828
  340EMC      H 4107   0.245   2.310   2.860
  340EMC      H 4108   0.249   2.474   2.929
  340EMC      H 4109   0.361   2.349   2.985
  340EMC      H 4110   0.356   2.471   2.704
  340EMC      H 4111   0.476   2.511   2.827
  340EMC      H 4112   0.849   2.216   2.826
  340EMC      H 4113   0.812   2.049   2.775
  340EMC      H 4114   0.751   2.107   2.931
  341FTA      O 4115   1.818   2.093   2.145
  341FTA      S 4116   1.715   2.085   2.043
  341FTA      O 4117   1.716   1.962   1.965
  341FTA      F 4118   1.768   2.193   1.937
  341FTA      N 4119   1.575   2.143   2.087
  341FTA      S 4120   1.467   2.148   1.971
  341FTA      O 4121   1.512   2.198   1.841
  341FTA      O 4122   1.342   2.209   2.015
  341FTA      C 4123   1.428   1.968   1.950
  341FTA      F 4124   1.488   1.911   1.842
  341FTA      F 4125   1.294   1.949   1.931
  341FTA      F 4126   1.459   1.894   2.060
  342FTA      O 4127   2.723   3.735   1.162
  342FTA      S 4128   2.623   3.713   1.059
  342FTA      O 4129   2.656   3.608   0.964
  342FTA      F 4130   2.638   3.846   0.971
  342FTA      N 4131   2.474   3.720   1.111
  342FTA      S 4132   2.365   3.710   0.996
  342FTA      O 4133   2.389   3.789   0.875
  342FTA      O 4134   2.229   3.725   1.048
  342FTA      C 4135   2.379   3.532   0.948
  342FTA      F 4136   2.448   3.511   0.833
  342FTA      F 4137   2.255   3.477   0.926
  342FTA      F 4138   2.434   3.454   1.046
  343FTA      O 4139   1.834   0.596   1.526
  343FTA      S 4140   1.902   0.504   1.437
  343FTA      O 4141   2.047   0.516   1.437
  343FTA      F 4142   1.862   0.564   1.294
  343FTA      N 4143   1.841   0.359   1.435
  343FTA      S 4144   1.907   0.263   1.326
  343FTA      O 4145   1.930   0.319   1.193
  343FTA      O 4146   1.841   0.132   1.322
  343FTA      C 4147   2.073   0.231   1.402
  343FTA      F 4148   2.174   0.303   1.345
  343FTA      F 4149   2.109   0.100   1.387
  343FTA      F 4150   2.075   0.253   1.536
  344FTA      O 4151   1.638   2.275   0.810
  344FTA      S 4152   1.596   2.356   0.697
  344FTA      O 4153   1.509   2.288   0.603
  344FTA      F 4154   1.733   2.368   0.615
  344FTA      N 4155   1.561   2.505   0.734
  344FTA      S 4156   1.530   2.597   0.609
  344FTA      O 4157   1.619   2.585   0.493
  344FTA      O 4158   1.506   2.736   0.647
  344FTA      C 4159   1.364   2.533   0.557
  344FTA      F 4160   1.368   2.450   0.449
  344FTA      F 4161   1.281   2.635   0.521
  344FTA      F 4162   1.299   2.468   0.657
  345FTA      O 4163   2.225   1.775   0.972
  345FTA      S 4164   2.105   1.731   0.904
  345FTA      O 4165   2.016   1.838   0.862
  345FTA      F 4166   2.024   1.663   1.024
  345FTA      N 4167   2.128   1.612   0.803
  345FTA      S 4168   1.994   1.554   0.740
  345FTA      O 4169   1.882   1.533   0.831
  345FTA      O 4170   2.020   1.438   0.653
  345FTA      C 4171   1.946   1.691   0.624
  345FTA      F 4172   1.846   1.770   0.671
  345FTA      F 4173   1.901   1.640   0.505
  345FTA      F 4174   2.052   1.770   0.590
  346FTA      O 4175   1.017   2.303   1.935
  346FTA      S 4176   0.999   2.159   1.934
  346FTA      O 4177   0.894   2.110   2.022
  346FTA      F 4178   1.133   2.109   2.008
  346FTA      N 4179   1.010   2.093   1.791
  346FTA      S 4180   1.005   1.935   1.791
  346FTA      O 4181   1.084   1.866   1.893
  346FTA      O 4182   1.023   1.878   1.658
  346FTA      C 4183   0.826   1.904   1.832
  346FTA      F 4184   0.805   1.869   1.962
  346FTA      F 4185   0.776   1.801   1.757
  346FTA      F 4186   0.746   2.011   1.803
  347FTA      O 4187   3.011   1.112   1.010
  347FTA      S 4188   2.968   0.984   0.956
  347FTA      O 4189   2.937   0.986   0.814
  347FTA      F 4190   2.824   0.968   1.024
  347FTA      N 4191   3.049   0.860   1.011
  347FTA      S 4192   2.993   0.720   0.963
  347FTA      O 4193   2.848   0.701   0.967
  347FTA      O 4194   3.067   0.608   1.023
  347FTA      C 4195   3.044   0.720   0.785
  347FTA      F 4196   2.942   0.748   0.699
  347FTA      F 4197   3.090   0.596   0.747
  347FTA      F 4198   3.147   0.805   0.759
  348FTA      O 4199   1.952   1.119   1.645
  348FTA      S 4200   2.043   1.232   1.653
  348FTA      O 4201   2.172   1.200   1.712
  348FTA      F 4202   1.973   1.321   1.766
  348FTA      N 4203   2.042   1.325   1.526
  348FTA      S 4204   2.131   1.456   1.542
  348FTA      O 4205   2.121   1.529   1.668
  348FTA      O 4206   2.121   1.544   1.425
  348FTA      C 4207   2.302   1.385   1.533
  348FTA      F 4208   2.363   1.373   1.654
  348FTA      F 4209   2.384   1.464   1.458
  348FTA      F 4210   2.305   1.263   1.471
  349FTA      O 4211   0.330   2.313   1.237
  349FTA      S 4212   0.352   2.432   1.157
  349FTA      O 4213   0.303   2.555   1.217
  349FTA      F 4214   0.250   2.409   1.036
  349FTA      N 4215   0.493   2.437   1.087
  349FTA      S 4216   0.512   2.561   0.988
  349FTA      O 4217   0.400   2.591   0.898
  349FTA      O 4218   0.641   2.557   0.919
  349FTA      C 4219   0.526   2.701   1.108
  349FTA      F 4220   0.412   2.775   1.120
  349FTA      F 4221   0.623   2.790   1.069
  349FTA      F 4222   0.564   2.661   1.233
  350FTA      O 4223   1.719   2.880   0.579
  350FTA      S 4224   1.828   2.908   0.487
  350FTA      O 4225   1.960   2.907   0.547
  350FTA      F 4226   1.804   3.064   0.456
  350FTA      N 4227   1.811   2.840   0.346
  350FTA      S 4228   1.922   2.882   0.240
  350FTA      O 4229   1.957   3.024   0.233
  350FTA      O 4230   1.898   2.823   0.109
  350FTA      C 4231   2.071   2.793   0.306
  350FTA      F 4232   2.157   2.874   0.374
  350FTA      F 4233   2.144   2.738   0.205
  350FTA      F 4234   2.038   2.688   0.387
  351FTA      O 4235   1.415   1.581   1.564
  351FTA      S 4236   1.439   1.493   1.451
  351FTA      O 4237   1.578   1.481   1.412
  351FTA      F 4238   1.376   1.579   1.331
  351FTA      N 4239   1.351   1.362   1.452
  351FTA      S 4240   1.366   1.274   1.321
  351FTA      O 4241   1.365   1.344   1.192
  351FTA      O 4242   1.277   1.157   1.322
  351FTA      C 4243   1.537   1.204   1.343
  351FTA      F 4244   1.632   1.266   1.268
  351FTA      F 4245   1.541   1.072   1.306
  351FTA      F 4246   1.577   1.205   1.474
  352FTA      O 4247   1.684   2.855   0.832
  352FTA      S 4248   1.609   2.968   0.882
  352FTA      O 4249   1.464   2.950   0.883
  352FTA      F 4250   1.630   3.075   0.765
  352FTA      N 4251   1.673   3.038   1.008
  352FTA      S 4252   1.599   3.171   1.054
  352FTA      O 4253   1.559   3.265   0.949
  352FTA      O 4254   1.667   3.236   1.166
  352FTA      C 4255   1.443   3.102   1.127
  352FTA      F 4256   1.334   3.113   1.045
  352FTA      F 4257   1.409   3.168   1.242
  352FTA      F 4258   1.455   2.971   1.164
  353FTA      O 4259   2.239   0.894   1.684
  353FTA      S 4260   2.377   0.852   1.702
  353FTA      O 4261   2.429   0.767   1.596
  353FTA      F 4262   2.364   0.751   1.825
  353FTA      N 4263   2.472   0.966   1.757
  353FTA      S 4264   2.619   0.916   1.790
  353FTA      O 4265   2.632   0.789   1.861
  353FTA      O 4266   2.701   1.022   1.848
  353FTA      C 4267   2.688   0.891   1.620
  353FTA      F 4268   2.693   0.760   1.581
  353FTA      F 4269   2.817   0.935   1.612
  353FTA      F 4270   2.621   0.961   1.524
  354FTA      O 4271   1.378   2.926   0.581
  354FTA      S 4272   1.383   3.056   0.517
  354FTA      O 4273   1.349   3.056   0.375
  354FTA      F 4274   1.541   3.084   0.514
  354FTA      N 4275   1.326   3.174   0.605
  354FTA      S 4276   1.344   3.318   0.541
  354FTA      O 4277   1.475   3.347   0.481
  354FTA      O 4278   1.297   3.424   0.630
  354FTA      C 4279   1.221   3.312   0.403
  354FTA      F 4280   1.276   3.291   0.280
  354FTA      F 4281   1.154   3.431   0.392
  354FTA      F 4282   1.124   3.219   0.422
  355FTA      O 4283   0.805   3.416   2.683
  355FTA      S 4284   0.689   3.393   2.599
  355FTA      O 4285   0.660   3.252   2.574
  355FTA      F 4286   0.743   3.443   2.456
  355FTA      N 4287   0.567   3.488   2.629
  355FTA      S 4288   0.446   3.472   2.527
  355FTA      O 4289   0.480   3.462   2.385
  355FTA      O 4290   0.339   3.568   2.554
  355FTA      C 4291   0.377   3.308   2.579
  355FTA      F 4292   0.412   3.205   2.496
  355FTA      F 4293   0.240   3.310   2.578
  355FTA      F 4294   0.411   3.274   2.706
  356FTA      O 4295   2.997   3.712   2.052
  356FTA      S 4296   2.940   3.588   2.003
  356FTA      O 4297   3.037   3.480   1.985
  356FTA      F 4298   2.902   3.627   1.853
  356FTA      N 4299   2.801   3.550   2.068
  356FTA      S 4300   2.733   3.422   2.005
  356FTA      O 4301   2.734   3.411   1.859
  356FTA      O 4302   2.600   3.396   2.062
  356FTA      C 4303   2.841   3.287   2.071
  356FTA      F 4304   2.930   3.238   1.980
  356FTA      F 4305   2.766   3.179   2.109
  356FTA      F 4306   2.909   3.323   2.183
  357FTA      O 4307   3.133   0.223   1.057
  357FTA      S 4308   3.030   0.269   0.965
  357FTA      O 4309   3.026   0.198   0.838
  357FTA      F 4310   3.086   0.413   0.924
  357FTA      N 4311   2.892   0.301   1.035
  357FTA      S 4312   2.784   0.365   0.938
  357FTA      O 4313   2.830   0.470   0.847
  357FTA      O 4314   2.661   0.401   1.009
  357FTA      C 4315   2.738   0.219   0.833
  357FTA      F 4316   2.795   0.220   0.710
  357FTA      F 4317   2.603   0.215   0.811
  357FTA      F 4318   2.767   0.100   0.893
  358FTA      O 4319   0.732   3.454   1.757
  358FTA      S 4320   0.594   3.429   1.721
  358FTA      O 4321   0.565   3.291   1.686
  358FTA      F 4322   0.584   3.504   1.580
  358FTA      N 4323   0.489   3.505   1.811
  358FTA      S 4324   0.339   3.489   1.762
  358FTA      O 4325   0.313   3.502   1.619
  358FTA      O 4326   0.246   3.567   1.844
  358FTA      C 4327   0.305   3.312   1.808
  358FTA      F 4328   0.309   3.226   1.702
  358FTA      F 4329   0.179   3.299   1.861
  358FTA      F 4330   0.388   3.265   1.905
  359FTA      O 4331   3.379   3.063   0.512
  359FTA      S 4332   3.459   3.119   0.619
  359FTA      O 4333   3.500   3.024   0.721
  359FTA      F 4334   3.351   3.209   0.696
  359FTA      N 4335   3.567   3.224   0.571
  359FTA      S 4336   3.645   3.296   0.689
  359FTA      O 4337   3.565   3.342   0.803
  359FTA      O 4338   3.737   3.398   0.640
  359FTA      C 4339   3.753   3.159   0.751
  359FTA      F 4340   3.708   3.100   0.865
  359FTA      F 4341   3.879   3.205   0.780
  359FTA      F 4342   3.773   3.061   0.657
  360FTA      O 4343   2.902   2.841   1.070
  360FTA      S 4344   2.774   2.807   1.010
  360FTA      O 4345   2.675   2.754   1.104
  360FTA      F 4346   2.813   2.678   0.923
  360FTA      N 4347   2.723   2.911   0.903
  360FTA      S 4348   2.591   2.866   0.827
  360FTA      O 4349   2.584   2.727   0.782
  360FTA      O 4350   2.552   2.961   0.723
  360FTA      C 4351   2.464   2.887   0.960
  360FTA      F 4352   2.426   2.770   1.019
  360FTA      F 4353   2.349   2.942   0.910
  360FTA      F 4354   2.504   2.973   1.059
  361FTA      O 4355   3.615   3.882   2.407
  361FTA      S 4356   3.541   3.841   2.525
  361FTA      O 4357   3.576   3.710   2.577
  361FTA      F 4358   3.395   3.818   2.464
  361FTA      N 4359   3.519   3.957   2.630
  361FTA      S 4360   3.426   3.917   2.752
  361FTA      O 4361   3.304   3.843   2.721
  361FTA      O 4362   3.403   4.030   2.842
  361FTA      C 4363   3.538   3.803   2.847
  361FTA      F 4364   3.509   3.671   2.829
  361FTA      F 4365   3.527   3.825   2.981
  361FTA      F 4366   3.670   3.822   2.818
  362FTA      O 4367   2.974   1.327   0.603
  362FTA      S 4368   2.844   1.273   0.567
  362FTA      O 4369   2.846   1.137   0.515
  362FTA      F 4370   2.809   1.360   0.437
  362FTA      N 4371   2.729   1.310   0.669
  362FTA      S 4372   2.584   1.264   0.622
  362FTA      O 4373   2.549   1.288   0.482
  362FTA      O 4374   2.480   1.308   0.715
  362FTA      C 4375   2.595   1.081   0.645
  362FTA      F 4376   2.614   1.012   0.529
  362FTA      F 4377   2.479   1.031   0.698
  362FTA      F 4378   2.693   1.044   0.733
  363FTA      O 4379   3.360   1.402   1.485
  363FTA      S 4380   3.278   1.334   1.583
  363FTA      O 4381   3.234   1.417   1.695
  363FTA      F 4382   3.385   1.237   1.652
  363FTA      N 4383   3.172   1.234   1.521
  363FTA      S 4384   3.093   1.149   1.629
  363FTA      O 4385   3.171   1.090   1.738
  363FTA      O 4386   3.002   1.052   1.566
  363FTA      C 4387   2.982   1.277   1.703
  363FTA      F 4388   3.024   1.323   1.824
  363FTA      F 4389   2.856   1.227   1.724
  363FTA      F 4390   2.964   1.385   1.621
  364FTA      O 4391   2.374   1.250   4.030
  364FTA      S 4392   2.400   1.199   3.897
  364FTA      O 4393   2.539   1.160   3.873
  364FTA      F 4394   2.386   1.332   3.809
  364FTA      N 4395   2.288   1.105   3.840
  364FTA      S 4396   2.310   1.061   3.689
  364FTA      O 4397   2.352   1.166   3.595
  364FTA      O 4398   2.199   0.981   3.638
  364FTA      C 4399   2.452   0.943   3.705
  364FTA      F 4400   2.572   0.995   3.669
  364FTA      F 4401   2.434   0.834   3.625
  364FTA      F 4402   2.463   0.892   3.831
  365FTA      O 4403   1.520   0.454   1.934
  365FTA      S 4404   1.491   0.387   1.809
  365FTA      O 4405   1.549   0.254   1.797
  365FTA      F 4406   1.579   0.473   1.706
  365FTA      N 4407   1.343   0.406   1.757
  365FTA      S 4408   1.316   0.345   1.614
  365FTA      O 4409   1.418   0.369   1.511
  365FTA      O 4410   1.180   0.373   1.567
  365FTA      C 4411   1.318   0.163   1.651
  365FTA      F 4412   1.433   0.101   1.615
  365FTA      F 4413   1.219   0.098   1.582
  365FTA      F 4414   1.293   0.136   1.782
  366FTA      O 4415   3.418   0.203   0.980
  366FTA      S 4416   3.445   0.302   1.082
  366FTA      O 4417   3.554   0.268   1.172
  366FTA      F 4418   3.315   0.288   1.175
  366FTA      N 4419   3.437   0.451   1.030
  366FTA      S 4420   3.452   0.560   1.145
  366FTA      O 4421   3.377   0.537   1.269
  366FTA      O 4422   3.435   0.696   1.094
  366FTA      C 4423   3.632   0.545   1.186
  366FTA      F 4424   3.657   0.475   1.300
  366FTA      F 4425   3.688   0.669   1.206
  366FTA      F 4426   3.705   0.490   1.085
  367FTA      O 4427   2.880   1.848   1.165
  367FTA      S 4428   2.963   1.908   1.268
  367FTA      O 4429   2.941   2.051   1.288
  367FTA      F 4430   3.107   1.904   1.200
  367FTA      N 4431   2.980   1.819   1.398
  367FTA      S 4432   3.082   1.879   1.504
  367FTA      O 4433   3.208   1.933   1.452
  367FTA      O 4434   3.101   1.789   1.618
  367FTA      C 4435   2.985   2.022   1.571
  367FTA      F 4436   3.023   2.142   1.522
  367FTA      F 4437   3.000   2.032   1.707
  367FTA      F 4438   2.851   2.008   1.552
  368FTA      O 4439   1.636   0.280   1.448
  368FTA      S 4440   1.569   0.365   1.351
  368FTA      O 4441   1.461   0.300   1.277
  368FTA      F 4442   1.683   0.382   1.239
  368FTA      N 4443   1.544   0.512   1.401
  368FTA      S 4444   1.484   0.609   1.290
  368FTA      O 4445   1.543   0.601   1.156
  368FTA      O 4446   1.470   0.746   1.339
  368FTA      C 4447   1.310   0.545   1.277
  368FTA      F 4448   1.289   0.466   1.168
  368FTA      F 4449   1.221   0.648   1.266
  368FTA      F 4450   1.270   0.476   1.387
  369FTA      O 4451   2.122   0.604   2.225
  369FTA      S 4452   2.153   0.745   2.239
  369FTA      O 4453   2.183   0.813   2.113
  369FTA      F 4454   2.296   0.740   2.311
  369FTA      N 4455   2.061   0.822   2.342
  369FTA      S 4456   2.104   0.972   2.368
  369FTA      O 4457   2.247   0.999   2.385
  369FTA      O 4458   2.022   1.036   2.471
  369FTA      C 4459   2.053   1.052   2.209
  369FTA      F 4460   2.156   1.076   2.123
  369FTA      F 4461   1.995   1.174   2.232
  369FTA      F 4462   1.957   0.981   2.142
  370FTA      O 4463   1.523   3.199   1.427
  370FTA      S 4464   1.458   3.244   1.549
  370FTA      O 4465   1.314   3.223   1.552
  370FTA      F 4466   1.469   3.403   1.533
  370FTA      N 4467   1.539   3.214   1.681
  370FTA      S 4468   1.475   3.277   1.812
  370FTA      O 4469   1.426   3.415   1.803
  370FTA      O 4470   1.557   3.253   1.930
  370FTA      C 4471   1.326   3.169   1.835
  370FTA      F 4472   1.209   3.226   1.795
  370FTA      F 4473   1.308   3.138   1.967
  370FTA      F 4474   1.338   3.048   1.772
  371FTA      O 4475   2.297   2.289   2.590
  371FTA      S 4476   2.250   2.299   2.728
  371FTA      O 4477   2.335   2.379   2.815
  371FTA      F 4478   2.277   2.150   2.781
  371FTA      N 4479   2.094   2.316   2.742
  371FTA      S 4480   2.042   2.312   2.892
  371FTA      O 4481   2.098   2.208   2.979
  371FTA      O 4482   1.896   2.319   2.899
  371FTA      C 4483   2.102   2.475   2.955
  371FTA      F 4484   2.213   2.466   3.033
  371FTA      F 4485   2.007   2.534   3.034
  371FTA      F 4486   2.126   2.565   2.856
  372FTA      O 4487   1.018   1.000   3.627
  372FTA      S 4488   1.039   0.888   3.717
  372FTA      O 4489   0.920   0.841   3.786
  372FTA      F 4490   1.122   0.958   3.835
  372FTA      N 4491   1.139   0.779   3.662
  372FTA      S 4492   1.174   0.664   3.766
  372FTA      O 4493   1.203   0.706   3.903
  372FTA      O 4494   1.273   0.570   3.713
  372FTA      C 4495   1.015   0.569   3.770
  372FTA      F 4496   0.939   0.595   3.880
  372FTA      F 4497   1.039   0.434   3.772
  372FTA      F 4498   0.938   0.589   3.659
  373FTA      O 4499   1.236   2.003   2.600
  373FTA      S 4500   1.231   1.869   2.655
  373FTA      O 4501   1.099   1.808   2.656
  373FTA      F 4502   1.258   1.897   2.810
  373FTA      N 4503   1.353   1.778   2.612
  373FTA      S 4504   1.356   1.636   2.684
  373FTA      O 4505   1.328   1.634   2.828
  373FTA      O 4506   1.475   1.559   2.648
  373FTA      C 4507   1.215   1.550   2.600
  373FTA      F 4508   1.102   1.544   2.674
  373FTA      F 4509   1.247   1.420   2.572
  373FTA      F 4510   1.184   1.605   2.479
  374FTA      O 4511   0.690   2.393   0.102
  374FTA      S 4512   0.693   2.393   0.247
  374FTA      O 4513   0.775   2.289   0.307
  374FTA      F 4514   0.544   2.344   0.282
  374FTA      N 4515   0.700   2.538   0.311
  374FTA      S 4516   0.689   2.539   0.470
  374FTA      O 4517   0.586   2.453   0.530
  374FTA      O 4518   0.688   2.675   0.524
  374FTA      C 4519   0.853   2.469   0.519
  374FTA      F 4520   0.848   2.338   0.556
  374FTA      F 4521   0.905   2.535   0.626
  374FTA      F 4522   0.947   2.482   0.421
  375LI      Li 4523   3.889   3.851   3.199
  376LI      Li 4524   2.803   1.140   1.529
  377LI      Li 4525   0.344   1.684   0.495
  378LI      Li 4526   1.338   0.855   2.514
  379LI      Li 4527   2.278   1.633   1.550
  380LI      Li 4528   3.059   1.639   1.142
  381LI      Li 4529   2.388   1.565   3.905
  382LI      Li 4530   0.202   2.095   0.952
  383LI      Li 4531   3.260   3.705   1.800
  384LI      Li 4532   2.152   2.793   3.114
  385LI      Li 4533   2.859   0.835   3.542
  386LI      Li 4534   2.401   0.848   2.524
  387LI      Li 4535   1.366   3.617   0.532
  388LI      Li 4536   0.466   1.684   3.757
  389LI      Li 4537   3.433   3.392   0.525
  390LI      Li 4538   1.165   1.653   0.607
  391LI      Li 4539   0.100   0.384   2.553
  392LI      Li 4540   3.063   1.413   2.130
  393LI      Li 4541   1.542   0.505   2.181
  394LI      Li 4542   2.206   2.676   0.830
  395LI      Li 4543   0.871   0.381   3.517
  396LI      Li 4544   2.726   0.964   3.823
  397LI      Li 4545   1.286   0.188   2.834
  398LI      Li 4546   3.491   2.320   1.619
  399LI      Li 4547   3.811   0.120   2.169
  400LI      Li 4548   2.832   1.877   2.303
  401LI      Li 4549   0.856   0.995   1.053
  402LI      Li 4550   1.868   1.942   3.083
  403LI      Li 4551   3.252   2.318   0.181
  404LI      Li 4552   1.006   3.804   0.724
  405LI      Li 4553   1.032   2.032   2.519
  406LI      Li 4554   3.519   1.563   4.030
  407LI      Li 4555   1.376   1.120   0.289
  408LI      Li 4556   0.716   2.455   0.707
   4.13000   4.13000   4.13000
