A Gromacs structure file written by ASE
 5100
    1SL       O    1   4.108   3.112   1.509
    1SL       S    2   4.045   3.239   1.477
    1SL       O    3   4.084   3.362   1.544
    1SL       C    4   4.053   3.263   1.301
    1SL       C    5   3.909   3.291   1.259
    1SL       C    6   3.821   3.201   1.346
    1SL       C    7   3.868   3.221   1.488
    1SL       H    8   4.120   3.346   1.277
    1SL       H    9   4.089   3.171   1.255
    1SL       H   10   3.894   3.272   1.152
    1SL       H   11   3.883   3.396   1.278
    1SL       H   12   3.836   3.096   1.315
    1SL       H   13   3.715   3.224   1.335
    1SL       H   14   3.844   3.136   1.553
    1SL       H   15   3.828   3.313   1.530
    2SL       O   16   0.103   2.280   2.249
    2SL       S   17   0.192   2.229   2.351
    2SL       O   18   0.181   2.093   2.401
    2SL       C   19   0.360   2.259   2.300
    2SL       C   20   0.424   2.333   2.417
    2SL       C   21   0.316   2.427   2.472
    2SL       C   22   0.192   2.341   2.489
    2SL       H   23   0.410   2.164   2.278
    2SL       H   24   0.358   2.322   2.210
    2SL       H   25   0.513   2.389   2.385
    2SL       H   26   0.455   2.262   2.495
    2SL       H   27   0.297   2.507   2.399
    2SL       H   28   0.347   2.473   2.566
    2SL       H   29   0.100   2.400   2.489
    2SL       H   30   0.198   2.282   2.581
    3SL       O   31   3.072   2.069   2.199
    3SL       S   32   3.113   2.050   2.062
    3SL       O   33   3.200   1.941   2.022
    3SL       C   34   2.968   2.048   1.958
    3SL       C   35   2.994   2.153   1.851
    3SL       C   36   3.067   2.267   1.921
    3SL       C   37   3.180   2.203   1.999
    3SL       H   38   2.953   1.948   1.916
    3SL       H   39   2.882   2.076   2.020
    3SL       H   40   2.900   2.187   1.805
    3SL       H   41   3.057   2.111   1.772
    3SL       H   42   2.998   2.319   1.989
    3SL       H   43   3.105   2.341   1.849
    3SL       H   44   3.214   2.265   2.082
    3SL       H   45   3.264   2.178   1.934
    4SL       O   46   0.581   1.106   2.119
    4SL       S   47   0.443   1.149   2.130
    4SL       O   48   0.366   1.127   2.251
    4SL       C   49   0.434   1.321   2.086
    4SL       C   50   0.326   1.328   1.978
    4SL       C   51   0.343   1.202   1.893
    4SL       C   52   0.351   1.087   1.991
    4SL       H   53   0.409   1.382   2.173
    4SL       H   54   0.531   1.351   2.046
    4SL       H   55   0.336   1.419   1.917
    4SL       H   56   0.227   1.329   2.023
    4SL       H   57   0.436   1.209   1.835
    4SL       H   58   0.261   1.189   1.822
    4SL       H   59   0.401   0.999   1.950
    4SL       H   60   0.251   1.059   2.027
    5SL       O   61   1.091   1.891   0.776
    5SL       S   62   1.200   1.829   0.847
    5SL       O   63   1.336   1.833   0.798
    5SL       C   64   1.198   1.886   1.016
    5SL       C   65   1.197   1.760   1.101
    5SL       C   66   1.108   1.659   1.026
    5SL       C   67   1.157   1.659   0.883
    5SL       H   68   1.285   1.949   1.035
    5SL       H   69   1.106   1.944   1.031
    5SL       H   70   1.159   1.780   1.202
    5SL       H   71   1.298   1.720   1.110
    5SL       H   72   1.003   1.693   1.031
    5SL       H   73   1.113   1.560   1.071
    5SL       H   74   1.081   1.625   0.812
    5SL       H   75   1.248   1.599   0.872
    6SL       O   76   1.401   3.293   3.659
    6SL       S   77   1.305   3.365   3.579
    6SL       O   78   1.316   3.373   3.435
    6SL       C   79   1.141   3.307   3.621
    6SL       C   80   1.063   3.433   3.656
    6SL       C   81   1.160   3.525   3.730
    6SL       C   82   1.285   3.529   3.645
    6SL       H   83   1.098   3.253   3.536
    6SL       H   84   1.149   3.241   3.707
    6SL       H   85   0.975   3.409   3.717
    6SL       H   86   1.028   3.482   3.564
    6SL       H   87   1.183   3.481   3.829
    6SL       H   88   1.118   3.624   3.746
    6SL       H   89   1.374   3.557   3.702
    6SL       H   90   1.273   3.598   3.561
    7SL       O   91   1.621   2.044   1.555
    7SL       S   92   1.540   2.056   1.435
    7SL       O   93   1.559   2.164   1.341
    7SL       C   94   1.546   1.901   1.348
    7SL       C   95   1.400   1.862   1.326
    7SL       C   96   1.326   1.905   1.453
    7SL       C   97   1.368   2.047   1.480
    7SL       H   98   1.600   1.913   1.253
    7SL       H   99   1.596   1.827   1.411
    7SL       H  100   1.389   1.755   1.308
    7SL       H  101   1.359   1.916   1.240
    7SL       H  102   1.356   1.840   1.537
    7SL       H  103   1.217   1.896   1.442
    7SL       H  104   1.356   2.077   1.585
    7SL       H  105   1.314   2.117   1.416
    8SL       O  106   3.789   2.377   1.819
    8SL       S  107   3.813   2.237   1.797
    8SL       O  108   3.809   2.178   1.664
    8SL       C  109   3.968   2.193   1.874
    8SL       C  110   3.935   2.074   1.964
    8SL       C  111   3.797   2.102   2.022
    8SL       C  112   3.709   2.141   1.905
    8SL       H  113   4.043   2.168   1.797
    8SL       H  114   4.002   2.278   1.933
    8SL       H  115   4.011   2.062   2.042
    8SL       H  116   3.932   1.982   1.905
    8SL       H  117   3.804   2.186   2.094
    8SL       H  118   3.757   2.016   2.076
    8SL       H  119   3.622   2.200   1.934
    8SL       H  120   3.676   2.052   1.850
    9SL       O  121   1.205   2.990   4.091
    9SL       S  122   1.316   2.925   4.025
    9SL       O  123   1.422   2.859   4.100
    9SL       C  124   1.251   2.810   3.905
    9SL       C  125   1.320   2.848   3.774
    9SL       C  126   1.332   3.000   3.774
    9SL       C  127   1.390   3.038   3.909
    9SL       H  128   1.272   2.707   3.935
    9SL       H  129   1.143   2.826   3.898
    9SL       H  130   1.264   2.812   3.687
    9SL       H  131   1.420   2.803   3.770
    9SL       H  132   1.231   3.044   3.762
    9SL       H  133   1.394   3.036   3.692
    9SL       H  134   1.367   3.140   3.938
    9SL       H  135   1.498   3.022   3.911
   10SL       O  136   1.876   1.879   3.169
   10SL       S  137   1.968   1.823   3.073
   10SL       O  138   1.948   1.838   2.930
   10SL       C  139   2.133   1.877   3.115
   10SL       C  140   2.215   1.749   3.124
   10SL       C  141   2.123   1.644   3.187
   10SL       C  142   1.993   1.651   3.110
   10SL       H  143   2.170   1.945   3.038
   10SL       H  144   2.129   1.928   3.211
   10SL       H  145   2.306   1.764   3.183
   10SL       H  146   2.245   1.716   3.024
   10SL       H  147   2.106   1.670   3.293
   10SL       H  148   2.167   1.544   3.184
   10SL       H  149   1.908   1.612   3.167
   10SL       H  150   2.001   1.597   3.015
   11SL       O  151   4.117   2.155   3.956
   11SL       S  152   3.982   2.207   3.946
   11SL       O  153   3.872   2.149   4.021
   11SL       C  154   3.987   2.382   3.976
   11SL       C  155   3.917   2.445   3.856
   11SL       C  156   3.958   2.361   3.735
   11SL       C  157   3.936   2.217   3.774
   11SL       H  158   3.938   2.406   4.071
   11SL       H  159   4.092   2.413   3.980
   11SL       H  160   3.945   2.550   3.843
   11SL       H  161   3.809   2.440   3.869
   11SL       H  162   4.065   2.378   3.713
   11SL       H  163   3.901   2.388   3.645
   11SL       H  164   3.996   2.147   3.716
   11SL       H  165   3.830   2.190   3.767
   12SL       O  166   1.688   2.372   3.046
   12SL       S  167   1.767   2.324   3.156
   12SL       O  168   1.711   2.304   3.288
   12SL       C  169   1.852   2.176   3.106
   12SL       C  170   1.999   2.202   3.136
   12SL       C  171   2.024   2.350   3.103
   12SL       C  172   1.913   2.426   3.172
   12SL       H  173   1.813   2.090   3.160
   12SL       H  174   1.836   2.163   2.998
   12SL       H  175   2.065   2.137   3.077
   12SL       H  176   2.020   2.184   3.242
   12SL       H  177   2.018   2.364   2.994
   12SL       H  178   2.122   2.383   3.136
   12SL       H  179   1.894   2.524   3.126
   12SL       H  180   1.934   2.439   3.278
   13SL       O  181   1.611   1.005   0.716
   13SL       S  182   1.600   0.977   0.857
   13SL       O  183   1.547   1.074   0.951
   13SL       C  184   1.512   0.823   0.878
   13SL       C  185   1.603   0.737   0.965
   13SL       C  186   1.746   0.767   0.921
   13SL       C  187   1.757   0.918   0.918
   13SL       H  188   1.415   0.841   0.923
   13SL       H  189   1.499   0.778   0.779
   13SL       H  190   1.579   0.630   0.955
   13SL       H  191   1.590   0.764   1.071
   13SL       H  192   1.763   0.726   0.820
   13SL       H  193   1.820   0.723   0.988
   13SL       H  194   1.837   0.953   0.852
   13SL       H  195   1.772   0.959   1.018
   14SL       O  196   1.855   0.890   2.832
   14SL       S  197   1.886   0.750   2.814
   14SL       O  198   1.783   0.648   2.812
   14SL       C  199   1.987   0.733   2.668
   14SL       C  200   2.110   0.655   2.714
   14SL       C  201   2.142   0.706   2.855
   14SL       C  202   2.011   0.702   2.931
   14SL       H  203   1.932   0.680   2.590
   14SL       H  204   2.015   0.833   2.634
   14SL       H  205   2.195   0.670   2.646
   14SL       H  206   2.088   0.548   2.718
   14SL       H  207   2.179   0.810   2.849
   14SL       H  208   2.219   0.646   2.904
   14SL       H  209   2.009   0.771   3.017
   14SL       H  210   1.988   0.601   2.965
   15SL       O  211   3.144   3.091   2.793
   15SL       S  212   3.030   3.109   2.706
   15SL       O  213   3.023   3.048   2.575
   15SL       C  214   2.882   3.069   2.797
   15SL       C  215   2.792   3.191   2.782
   15SL       C  216   2.884   3.313   2.787
   15SL       C  217   2.996   3.284   2.690
   15SL       H  218   2.837   2.978   2.756
   15SL       H  219   2.910   3.053   2.901
   15SL       H  220   2.716   3.194   2.861
   15SL       H  221   2.740   3.188   2.685
   15SL       H  222   2.924   3.324   2.889
   15SL       H  223   2.831   3.405   2.761
   15SL       H  224   3.087   3.341   2.712
   15SL       H  225   2.965   3.302   2.587
   16SL       O  226   1.136   3.140   2.105
   16SL       S  227   1.269   3.166   2.153
   16SL       O  228   1.296   3.267   2.253
   16SL       C  229   1.341   3.012   2.206
   16SL       C  230   1.474   3.002   2.131
   16SL       C  231   1.448   3.060   1.992
   16SL       C  232   1.378   3.192   2.014
   16SL       H  233   1.354   3.012   2.315
   16SL       H  234   1.274   2.931   2.177
   16SL       H  235   1.509   2.899   2.126
   16SL       H  236   1.550   3.062   2.182
   16SL       H  237   1.383   2.991   1.935
   16SL       H  238   1.540   3.073   1.935
   16SL       H  239   1.319   3.225   1.927
   16SL       H  240   1.449   3.271   2.042
   17SL       O  241   3.551   2.927   2.024
   17SL       S  242   3.605   2.999   1.912
   17SL       O  243   3.557   2.977   1.777
   17SL       C  244   3.598   3.174   1.948
   17SL       C  245   3.740   3.225   1.926
   17SL       C  246   3.833   3.114   1.976
   17SL       C  247   3.783   2.986   1.913
   17SL       H  248   3.525   3.223   1.883
   17SL       H  249   3.568   3.185   2.053
   17SL       H  250   3.757   3.319   1.979
   17SL       H  251   3.757   3.242   1.819
   17SL       H  252   3.826   3.107   2.086
   17SL       H  253   3.937   3.133   1.951
   17SL       H  254   3.812   2.896   1.969
   17SL       H  255   3.816   2.978   1.809
   18SL       O  256   4.082   3.760   0.550
   18SL       S  257   3.983   3.783   0.653
   18SL       O  258   3.939   3.677   0.741
   18SL       C  259   4.034   3.923   0.750
   18SL       C  260   3.914   4.017   0.749
   18SL       C  261   3.854   4.007   0.608
   18SL       C  262   3.840   3.860   0.579
   18SL       H  263   4.060   3.891   0.852
   18SL       H  264   4.120   3.969   0.702
   18SL       H  265   3.944   4.120   0.773
   18SL       H  266   3.839   3.986   0.823
   18SL       H  267   3.923   4.054   0.536
   18SL       H  268   3.758   4.059   0.601
   18SL       H  269   3.837   3.837   0.472
   18SL       H  270   3.751   3.818   0.629
   19SL       O  271   3.059   3.531   1.232
   19SL       S  272   3.044   3.527   1.088
   19SL       O  273   3.110   3.622   1.001
   19SL       C  274   3.082   3.361   1.033
   19SL       C  275   2.961   3.318   0.951
   19SL       C  276   2.839   3.376   1.021
   19SL       C  277   2.871   3.522   1.047
   19SL       H  278   3.175   3.362   0.975
   19SL       H  279   3.094   3.298   1.121
   19SL       H  280   2.955   3.209   0.942
   19SL       H  281   2.968   3.359   0.849
   19SL       H  282   2.824   3.323   1.117
   19SL       H  283   2.748   3.364   0.962
   19SL       H  284   2.812   3.564   1.130
   19SL       H  285   2.856   3.582   0.957
   20SL       O  286   0.753   3.190   0.369
   20SL       S  287   0.694   3.110   0.265
   20SL       O  288   0.696   3.152   0.126
   20SL       C  289   0.760   2.945   0.276
   20SL       C  290   0.638   2.853   0.283
   20SL       C  291   0.534   2.928   0.366
   20SL       C  292   0.527   3.068   0.309
   20SL       H  293   0.824   2.923   0.190
   20SL       H  294   0.818   2.938   0.369
   20SL       H  295   0.663   2.756   0.326
   20SL       H  296   0.599   2.836   0.182
   20SL       H  297   0.567   2.931   0.471
   20SL       H  298   0.437   2.878   0.364
   20SL       H  299   0.489   3.141   0.381
   20SL       H  300   0.466   3.070   0.218
   21SL       O  301   1.682   3.092   3.628
   21SL       S  302   1.803   3.144   3.567
   21SL       O  303   1.813   3.168   3.425
   21SL       C  304   1.851   3.291   3.654
   21SL       C  305   1.996   3.268   3.695
   21SL       C  306   2.006   3.120   3.732
   21SL       C  307   1.941   3.044   3.618
   21SL       H  308   1.839   3.379   3.590
   21SL       H  309   1.787   3.301   3.742
   21SL       H  310   2.026   3.332   3.778
   21SL       H  311   2.063   3.289   3.610
   21SL       H  312   1.952   3.102   3.826
   21SL       H  313   2.110   3.088   3.747
   21SL       H  314   1.906   2.944   3.648
   21SL       H  315   2.009   3.035   3.533
   22SL       O  316   3.078   3.494   3.177
   22SL       S  317   3.085   3.515   3.319
   22SL       O  318   3.011   3.621   3.385
   22SL       C  319   3.049   3.361   3.401
   22SL       C  320   3.167   3.338   3.496
   22SL       C  321   3.291   3.388   3.422
   22SL       C  322   3.256   3.525   3.369
   22SL       H  323   2.954   3.367   3.454
   22SL       H  324   3.045   3.282   3.326
   22SL       H  325   3.177   3.233   3.524
   22SL       H  326   3.153   3.396   3.588
   22SL       H  327   3.313   3.320   3.338
   22SL       H  328   3.379   3.391   3.486
   22SL       H  329   3.317   3.555   3.283
   22SL       H  330   3.263   3.601   3.448
   23SL       O  331   3.449   2.001   2.714
   23SL       S  332   3.477   2.105   2.810
   23SL       O  333   3.379   2.207   2.844
   23SL       C  334   3.537   2.030   2.960
   23SL       C  335   3.670   2.099   2.989
   23SL       C  336   3.736   2.122   2.853
   23SL       C  337   3.630   2.185   2.765
   23SL       H  338   3.464   2.043   3.041
   23SL       H  339   3.552   1.923   2.941
   23SL       H  340   3.733   2.039   3.055
   23SL       H  341   3.652   2.196   3.038
   23SL       H  342   3.768   2.025   2.812
   23SL       H  343   3.825   2.186   2.861
   23SL       H  344   3.649   2.170   2.658
   23SL       H  345   3.619   2.292   2.787
   24SL       O  346   2.509   1.231   1.849
   24SL       S  347   2.622   1.304   1.797
   24SL       O  348   2.754   1.292   1.855
   24SL       C  349   2.633   1.273   1.621
   24SL       C  350   2.637   1.411   1.557
   24SL       C  351   2.542   1.499   1.639
   24SL       C  352   2.580   1.477   1.784
   24SL       H  353   2.723   1.214   1.599
   24SL       H  354   2.544   1.218   1.591
   24SL       H  355   2.607   1.407   1.452
   24SL       H  356   2.738   1.452   1.562
   24SL       H  357   2.438   1.466   1.622
   24SL       H  358   2.549   1.604   1.611
   24SL       H  359   2.498   1.500   1.853
   24SL       H  360   2.669   1.535   1.811
   25SL       O  361   2.522   3.529   3.914
   25SL       S  362   2.633   3.618   3.887
   25SL       O  363   2.615   3.742   3.814
   25SL       C  364   2.717   3.652   4.040
   25SL       C  365   2.863   3.618   4.013
   25SL       C  366   2.862   3.494   3.923
   25SL       C  367   2.765   3.525   3.811
   25SL       H  368   2.703   3.757   4.068
   25SL       H  369   2.675   3.587   4.117
   25SL       H  370   2.918   3.599   4.107
   25SL       H  371   2.913   3.701   3.961
   25SL       H  372   2.826   3.407   3.982
   25SL       H  373   2.961   3.470   3.885
   25SL       H  374   2.724   3.435   3.764
   25SL       H  375   2.811   3.589   3.736
   26SL       O  376   3.683   3.178   2.572
   26SL       S  377   3.629   3.287   2.496
   26SL       O  378   3.709   3.362   2.400
   26SL       C  379   3.480   3.232   2.415
   26SL       C  380   3.373   3.333   2.455
   26SL       C  381   3.402   3.370   2.600
   26SL       C  382   3.550   3.403   2.606
   26SL       H  383   3.496   3.227   2.306
   26SL       H  384   3.456   3.132   2.453
   26SL       H  385   3.273   3.291   2.443
   26SL       H  386   3.380   3.422   2.391
   26SL       H  387   3.380   3.284   2.665
   26SL       H  388   3.341   3.454   2.634
   26SL       H  389   3.592   3.392   2.707
   26SL       H  390   3.569   3.504   2.568
   27SL       O  391   1.527   2.887   3.113
   27SL       S  392   1.648   2.820   3.156
   27SL       O  393   1.729   2.743   3.064
   27SL       C  394   1.752   2.938   3.240
   27SL       C  395   1.783   2.874   3.375
   27SL       C  396   1.656   2.801   3.418
   27SL       C  397   1.612   2.720   3.299
   27SL       H  398   1.842   2.958   3.181
   27SL       H  399   1.695   3.030   3.253
   27SL       H  400   1.814   2.949   3.448
   27SL       H  401   1.865   2.801   3.364
   27SL       H  402   1.579   2.876   3.444
   27SL       H  403   1.672   2.739   3.506
   27SL       H  404   1.505   2.696   3.300
   27SL       H  405   1.670   2.628   3.290
   28SL       O  406   1.606   2.998   0.394
   28SL       S  407   1.673   2.895   0.318
   28SL       O  408   1.606   2.823   0.211
   28SL       C  409   1.827   2.960   0.257
   28SL       C  410   1.933   2.861   0.303
   28SL       C  411   1.891   2.815   0.442
   28SL       C  412   1.745   2.777   0.431
   28SL       H  413   1.823   2.970   0.148
   28SL       H  414   1.843   3.058   0.302
   28SL       H  415   2.033   2.907   0.304
   28SL       H  416   1.937   2.775   0.235
   28SL       H  417   1.902   2.899   0.513
   28SL       H  418   1.951   2.732   0.479
   28SL       H  419   1.692   2.781   0.526
   28SL       H  420   1.734   2.677   0.386
   29SL       O  421   0.703   3.800   0.425
   29SL       S  422   0.706   3.662   0.465
   29SL       O  423   0.753   3.620   0.595
   29SL       C  424   0.544   3.592   0.438
   29SL       C  425   0.567   3.469   0.352
   29SL       C  426   0.680   3.505   0.255
   29SL       C  427   0.789   3.566   0.340
   29SL       H  428   0.496   3.568   0.533
   29SL       H  429   0.484   3.666   0.384
   29SL       H  430   0.476   3.439   0.298
   29SL       H  431   0.599   3.384   0.414
   29SL       H  432   0.643   3.579   0.182
   29SL       H  433   0.716   3.419   0.199
   29SL       H  434   0.856   3.632   0.283
   29SL       H  435   0.848   3.489   0.390
   30SL       O  436   3.434   2.906   2.464
   30SL       S  437   3.298   2.888   2.420
   30SL       O  438   3.187   2.882   2.514
   30SL       C  439   3.262   3.011   2.296
   30SL       C  440   3.209   2.932   2.177
   30SL       C  441   3.291   2.803   2.171
   30SL       C  442   3.289   2.747   2.312
   30SL       H  443   3.189   3.083   2.334
   30SL       H  444   3.355   3.062   2.270
   30SL       H  445   3.218   2.989   2.084
   30SL       H  446   3.103   2.908   2.191
   30SL       H  447   3.394   2.826   2.141
   30SL       H  448   3.250   2.732   2.099
   30SL       H  449   3.373   2.680   2.332
   30SL       H  450   3.194   2.695   2.332
   31SL       O  451   2.249   2.956   0.258
   31SL       S  452   2.279   3.095   0.230
   31SL       O  453   2.372   3.133   0.126
   31SL       C  454   2.125   3.182   0.204
   31SL       C  455   2.130   3.300   0.301
   31SL       C  456   2.198   3.249   0.427
   31SL       C  457   2.324   3.177   0.381
   31SL       H  458   2.116   3.213   0.100
   31SL       H  459   2.043   3.114   0.230
   31SL       H  460   2.030   3.339   0.322
   31SL       H  461   2.190   3.381   0.257
   31SL       H  462   2.131   3.178   0.479
   31SL       H  463   2.221   3.330   0.497
   31SL       H  464   2.360   3.104   0.454
   31SL       H  465   2.403   3.249   0.358
   32SL       O  466   2.715   0.759   3.211
   32SL       S  467   2.670   0.636   3.150
   32SL       O  468   2.747   0.514   3.157
   32SL       C  469   2.504   0.603   3.206
   32SL       C  470   2.422   0.585   3.078
   32SL       C  471   2.477   0.685   2.977
   32SL       C  472   2.627   0.668   2.979
   32SL       H  473   2.502   0.515   3.270
   32SL       H  474   2.469   0.690   3.262
   32SL       H  475   2.315   0.600   3.097
   32SL       H  476   2.435   0.483   3.040
   32SL       H  477   2.450   0.787   3.009
   32SL       H  478   2.436   0.669   2.877
   32SL       H  479   2.681   0.757   2.944
   32SL       H  480   2.658   0.581   2.921
   33SL       O  481   2.121   2.921   3.890
   33SL       S  482   2.244   2.853   3.853
   33SL       O  483   2.302   2.866   3.721
   33SL       C  484   2.368   2.891   3.976
   33SL       C  485   2.420   2.756   4.023
   33SL       C  486   2.299   2.663   4.027
   33SL       C  487   2.229   2.680   3.893
   33SL       H  488   2.446   2.953   3.932
   33SL       H  489   2.319   2.945   4.058
   33SL       H  490   2.468   2.763   4.121
   33SL       H  491   2.494   2.717   3.952
   33SL       H  492   2.232   2.693   4.109
   33SL       H  493   2.327   2.559   4.044
   33SL       H  494   2.123   2.652   3.897
   33SL       H  495   2.280   2.623   3.815
   34SL       O  496   0.895   1.153   2.809
   34SL       S  497   0.866   1.034   2.884
   34SL       O  498   0.935   1.002   3.008
   34SL       C  499   0.690   1.026   2.913
   34SL       C  500   0.647   0.889   2.862
   34SL       C  501   0.731   0.862   2.737
   34SL       C  502   0.874   0.893   2.776
   34SL       H  503   0.668   1.040   3.019
   34SL       H  504   0.642   1.106   2.855
   34SL       H  505   0.540   0.886   2.840
   34SL       H  506   0.668   0.812   2.938
   34SL       H  507   0.699   0.930   2.656
   34SL       H  508   0.720   0.760   2.701
   34SL       H  509   0.938   0.916   2.690
   34SL       H  510   0.918   0.810   2.832
   35SL       O  511   3.791   0.414   3.514
   35SL       S  512   3.719   0.479   3.407
   35SL       O  513   3.746   0.448   3.268
   35SL       C  514   3.544   0.461   3.438
   35SL       C  515   3.488   0.603   3.432
   35SL       C  516   3.594   0.693   3.495
   35SL       C  517   3.725   0.655   3.430
   35SL       H  518   3.499   0.395   3.363
   35SL       H  519   3.531   0.418   3.538
   35SL       H  520   3.392   0.610   3.484
   35SL       H  521   3.472   0.632   3.327
   35SL       H  522   3.599   0.673   3.603
   35SL       H  523   3.571   0.799   3.482
   35SL       H  524   3.812   0.681   3.491
   35SL       H  525   3.735   0.701   3.331
   36SL       O  526   1.388   0.802   1.523
   36SL       S  527   1.497   0.710   1.501
   36SL       O  528   1.480   0.589   1.423
   36SL       C  529   1.636   0.801   1.437
   36SL       C  530   1.752   0.767   1.529
   36SL       C  531   1.693   0.756   1.670
   36SL       C  532   1.571   0.668   1.657
   36SL       H  533   1.655   0.773   1.333
   36SL       H  534   1.612   0.908   1.442
   36SL       H  535   1.831   0.842   1.524
   36SL       H  536   1.795   0.670   1.500
   36SL       H  537   1.664   0.857   1.704
   36SL       H  538   1.765   0.717   1.741
   36SL       H  539   1.498   0.684   1.738
   36SL       H  540   1.599   0.562   1.653
   37SL       O  541   1.934   2.730   4.090
   37SL       S  542   1.867   2.674   3.975
   37SL       O  543   1.922   2.562   3.901
   37SL       C  544   1.699   2.635   4.021
   37SL       C  545   1.612   2.706   3.917
   37SL       C  546   1.682   2.839   3.886
   37SL       C  547   1.827   2.805   3.861
   37SL       H  548   1.684   2.527   4.021
   37SL       H  549   1.681   2.676   4.120
   37SL       H  550   1.510   2.721   3.953
   37SL       H  551   1.607   2.645   3.825
   37SL       H  552   1.673   2.905   3.974
   37SL       H  553   1.637   2.890   3.802
   37SL       H  554   1.894   2.890   3.877
   37SL       H  555   1.841   2.766   3.759
   38SL       O  556   2.306   2.981   3.306
   38SL       S  557   2.415   3.032   3.387
   38SL       O  558   2.517   2.944   3.442
   38SL       C  559   2.494   3.164   3.299
   38SL       C  560   2.495   3.282   3.396
   38SL       C  561   2.362   3.275   3.471
   38SL       C  562   2.348   3.132   3.518
   38SL       H  563   2.595   3.135   3.269
   38SL       H  564   2.434   3.187   3.210
   38SL       H  565   2.506   3.377   3.343
   38SL       H  566   2.578   3.272   3.467
   38SL       H  567   2.279   3.300   3.402
   38SL       H  568   2.358   3.346   3.554
   38SL       H  569   2.244   3.103   3.538
   38SL       H  570   2.409   3.114   3.608
   39SL       O  571   0.668   3.793   1.708
   39SL       S  572   0.617   3.926   1.685
   39SL       O  573   0.669   4.011   1.579
   39SL       C  574   0.440   3.918   1.671
   39SL       C  575   0.387   4.019   1.772
   39SL       C  576   0.480   4.010   1.893
   39SL       C  577   0.621   4.017   1.838
   39SL       H  578   0.409   3.941   1.569
   39SL       H  579   0.408   3.816   1.697
   39SL       H  580   0.283   3.998   1.800
   39SL       H  581   0.391   4.120   1.730
   39SL       H  582   0.464   3.914   1.944
   39SL       H  583   0.461   4.090   1.966
   39SL       H  584   0.695   3.974   1.905
   39SL       H  585   0.649   4.121   1.815
   40SL       O  586   2.237   3.513   0.934
   40SL       S  587   2.240   3.370   0.911
   40SL       O  588   2.144   3.280   0.971
   40SL       C  589   2.243   3.342   0.735
   40SL       C  590   2.363   3.252   0.711
   40SL       C  591   2.472   3.299   0.808
   40SL       C  592   2.404   3.309   0.943
   40SL       H  593   2.149   3.296   0.702
   40SL       H  594   2.256   3.439   0.685
   40SL       H  595   2.398   3.257   0.607
   40SL       H  596   2.337   3.148   0.732
   40SL       H  597   2.508   3.398   0.776
   40SL       H  598   2.557   3.231   0.811
   40SL       H  599   2.456   3.377   1.012
   40SL       H  600   2.394   3.211   0.990
   41SL       O  601   1.511   2.552   3.587
   41SL       S  602   1.581   2.451   3.662
   41SL       O  603   1.547   2.419   3.799
   41SL       C  604   1.584   2.300   3.566
   41SL       C  605   1.731   2.261   3.559
   41SL       C  606   1.810   2.391   3.545
   41SL       C  607   1.757   2.483   3.653
   41SL       H  608   1.522   2.224   3.615
   41SL       H  609   1.544   2.322   3.467
   41SL       H  610   1.750   2.193   3.474
   41SL       H  611   1.761   2.209   3.651
   41SL       H  612   1.791   2.435   3.446
   41SL       H  613   1.917   2.376   3.555
   41SL       H  614   1.773   2.589   3.631
   41SL       H  615   1.800   2.458   3.751
   42SL       O  616   2.176   0.594   0.397
   42SL       S  617   2.114   0.482   0.329
   42SL       O  618   2.183   0.356   0.311
   42SL       C  619   1.956   0.452   0.405
   42SL       C  620   1.855   0.453   0.290
   42SL       C  621   1.903   0.562   0.194
   42SL       C  622   2.050   0.537   0.172
   42SL       H  623   1.957   0.356   0.458
   42SL       H  624   1.935   0.533   0.475
   42SL       H  625   1.754   0.472   0.326
   42SL       H  626   1.856   0.356   0.239
   42SL       H  627   1.887   0.661   0.241
   42SL       H  628   1.847   0.561   0.100
   42SL       H  629   2.104   0.626   0.139
   42SL       H  630   2.066   0.456   0.100
   43SL       O  631   3.323   0.923   0.808
   43SL       S  632   3.252   1.030   0.742
   43SL       O  633   3.184   1.010   0.615
   43SL       C  634   3.139   1.103   0.858
   43SL       C  635   3.171   1.252   0.857
   43SL       C  636   3.323   1.262   0.842
   43SL       C  637   3.360   1.171   0.728
   43SL       H  638   3.036   1.081   0.828
   43SL       H  639   3.158   1.060   0.957
   43SL       H  640   3.135   1.301   0.948
   43SL       H  641   3.122   1.300   0.771
   43SL       H  642   3.370   1.228   0.936
   43SL       H  643   3.355   1.365   0.825
   43SL       H  644   3.465   1.138   0.732
   43SL       H  645   3.340   1.219   0.631
   44SL       O  646   1.141   1.655   0.212
   44SL       S  647   1.192   1.737   0.320
   44SL       O  648   1.165   1.879   0.327
   44SL       C  649   1.146   1.661   0.475
   44SL       C  650   1.277   1.647   0.552
   44SL       C  651   1.384   1.611   0.449
   44SL       C  652   1.367   1.711   0.336
   44SL       H  653   1.073   1.723   0.527
   44SL       H  654   1.103   1.562   0.453
   44SL       H  655   1.269   1.571   0.630
   44SL       H  656   1.302   1.742   0.600
   44SL       H  657   1.366   1.509   0.412
   44SL       H  658   1.484   1.614   0.491
   44SL       H  659   1.408   1.674   0.241
   44SL       H  660   1.413   1.807   0.361
   45SL       O  661   0.102   2.548   1.305
   45SL       S  662   0.163   2.610   1.420
   45SL       O  663   0.104   2.604   1.552
   45SL       C  664   0.332   2.556   1.430
   45SL       C  665   0.415   2.684   1.436
   45SL       C  666   0.346   2.784   1.343
   45SL       C  667   0.199   2.781   1.381
   45SL       H  668   0.346   2.492   1.518
   45SL       H  669   0.356   2.499   1.339
   45SL       H  670   0.519   2.666   1.406
   45SL       H  671   0.416   2.723   1.538
   45SL       H  672   0.359   2.751   1.239
   45SL       H  673   0.388   2.884   1.352
   45SL       H  674   0.134   2.815   1.300
   45SL       H  675   0.181   2.840   1.471
   46SL       O  676   0.438   1.734   1.795
   46SL       S  677   0.551   1.653   1.833
   46SL       O  678   0.580   1.622   1.972
   46SL       C  679   0.547   1.501   1.739
   46SL       C  680   0.684   1.492   1.673
   46SL       C  681   0.723   1.634   1.634
   46SL       C  682   0.698   1.719   1.757
   46SL       H  683   0.526   1.417   1.805
   46SL       H  684   0.468   1.510   1.664
   46SL       H  685   0.682   1.425   1.586
   46SL       H  686   0.757   1.452   1.745
   46SL       H  687   0.658   1.668   1.552
   46SL       H  688   0.826   1.641   1.601
   46SL       H  689   0.683   1.825   1.734
   46SL       H  690   0.780   1.709   1.829
   47SL       O  691   1.513   2.530   0.143
   47SL       S  692   1.433   2.572   0.256
   47SL       O  693   1.489   2.587   0.388
   47SL       C  694   1.349   2.724   0.212
   47SL       C  695   1.202   2.697   0.240
   47SL       C  696   1.177   2.551   0.200
   47SL       C  697   1.287   2.471   0.265
   47SL       H  698   1.388   2.807   0.270
   47SL       H  699   1.366   2.742   0.105
   47SL       H  700   1.137   2.765   0.184
   47SL       H  701   1.181   2.710   0.347
   47SL       H  702   1.183   2.542   0.090
   47SL       H  703   1.078   2.517   0.231
   47SL       H  704   1.305   2.375   0.215
   47SL       H  705   1.265   2.453   0.371
   48SL       O  706   2.964   2.603   0.316
   48SL       S  707   3.101   2.647   0.316
   48SL       O  708   3.210   2.560   0.355
   48SL       C  709   3.138   2.718   0.157
   48SL       C  710   3.194   2.857   0.187
   48SL       C  711   3.113   2.910   0.306
   48SL       C  712   3.113   2.799   0.409
   48SL       H  713   3.210   2.655   0.103
   48SL       H  714   3.045   2.725   0.100
   48SL       H  715   3.186   2.923   0.100
   48SL       H  716   3.300   2.850   0.215
   48SL       H  717   3.010   2.931   0.273
   48SL       H  718   3.155   3.002   0.345
   48SL       H  719   3.029   2.806   0.479
   48SL       H  720   3.208   2.797   0.464
   49SL       O  721   1.545   0.686   2.176
   49SL       S  722   1.490   0.691   2.043
   49SL       O  723   1.532   0.600   1.939
   49SL       C  724   1.312   0.687   2.055
   49SL       C  725   1.264   0.809   1.977
   49SL       C  726   1.365   0.920   2.005
   49SL       C  727   1.502   0.858   1.982
   49SL       H  728   1.274   0.593   2.014
   49SL       H  729   1.285   0.696   2.161
   49SL       H  730   1.163   0.838   2.006
   49SL       H  731   1.263   0.786   1.869
   49SL       H  732   1.355   0.953   2.109
   49SL       H  733   1.349   1.007   1.941
   49SL       H  734   1.582   0.911   2.035
   49SL       H  735   1.525   0.853   1.875
   50SL       O  736   0.777   1.114   0.457
   50SL       S  737   0.657   1.182   0.415
   50SL       O  738   0.595   1.155   0.286
   50SL       C  739   0.535   1.166   0.543
   50SL       C  740   0.490   1.309   0.574
   50SL       C  741   0.615   1.396   0.563
   50SL       C  742   0.681   1.358   0.431
   50SL       H  743   0.452   1.103   0.509
   50SL       H  744   0.583   1.121   0.630
   50SL       H  745   0.445   1.316   0.673
   50SL       H  746   0.416   1.342   0.500
   50SL       H  747   0.683   1.373   0.647
   50SL       H  748   0.592   1.502   0.567
   50SL       H  749   0.788   1.381   0.429
   50SL       H  750   0.631   1.407   0.347
   51SL       O  751   2.901   2.880   4.065
   51SL       S  752   2.778   2.823   4.017
   51SL       O  753   2.648   2.872   4.060
   51SL       C  754   2.783   2.820   3.839
   51SL       C  755   2.753   2.675   3.801
   51SL       C  756   2.822   2.589   3.906
   51SL       C  757   2.783   2.646   4.040
   51SL       H  758   2.709   2.890   3.798
   51SL       H  759   2.883   2.848   3.807
   51SL       H  760   2.788   2.652   3.700
   51SL       H  761   2.645   2.657   3.804
   51SL       H  762   2.931   2.595   3.892
   51SL       H  763   2.794   2.483   3.897
   51SL       H  764   2.853   2.622   4.120
   51SL       H  765   2.682   2.614   4.069
   52SL       O  766   1.287   1.134   1.236
   52SL       S  767   1.297   1.005   1.300
   52SL       O  768   1.422   0.932   1.307
   52SL       C  769   1.226   1.016   1.463
   52SL       C  770   1.122   0.905   1.469
   52SL       C  771   1.057   0.899   1.330
   52SL       C  772   1.172   0.897   1.231
   52SL       H  773   1.304   1.005   1.539
   52SL       H  774   1.178   1.114   1.473
   52SL       H  775   1.047   0.924   1.547
   52SL       H  776   1.170   0.809   1.490
   52SL       H  777   0.996   0.990   1.315
   52SL       H  778   0.992   0.813   1.318
   52SL       H  779   1.143   0.933   1.132
   52SL       H  780   1.215   0.797   1.223
   53SL       O  781   2.339   1.914   1.926
   53SL       S  782   2.388   1.798   1.998
   53SL       O  783   2.512   1.733   1.964
   53SL       C  784   2.389   1.837   2.172
   53SL       C  785   2.309   1.725   2.239
   53SL       C  786   2.195   1.692   2.142
   53SL       C  787   2.258   1.676   2.006
   53SL       H  788   2.492   1.843   2.209
   53SL       H  789   2.339   1.934   2.186
   53SL       H  790   2.271   1.756   2.337
   53SL       H  791   2.372   1.637   2.252
   53SL       H  792   2.123   1.776   2.141
   53SL       H  793   2.140   1.603   2.173
   53SL       H  794   2.188   1.692   1.924
   53SL       H  795   2.305   1.577   1.996
   54SL       O  796   2.983   3.339   2.001
   54SL       S  797   3.113   3.339   1.939
   54SL       O  798   3.193   3.218   1.931
   54SL       C  799   3.099   3.410   1.776
   54SL       C  800   3.204   3.521   1.773
   54SL       C  801   3.204   3.584   1.912
   54SL       C  802   3.212   3.469   2.010
   54SL       H  803   3.116   3.334   1.700
   54SL       H  804   2.998   3.451   1.766
   54SL       H  805   3.181   3.595   1.695
   54SL       H  806   3.303   3.479   1.752
   54SL       H  807   3.110   3.640   1.927
   54SL       H  808   3.286   3.654   1.925
   54SL       H  809   3.174   3.495   2.109
   54SL       H  810   3.315   3.432   2.018
   55SL       O  811   3.338   2.385   0.318
   55SL       S  812   3.474   2.390   0.365
   55SL       O  813   3.587   2.365   0.278
   55SL       C  814   3.499   2.546   0.448
   55SL       C  815   3.554   2.510   0.586
   55SL       C  816   3.481   2.382   0.628
   55SL       C  817   3.490   2.288   0.510
   55SL       H  818   3.568   2.609   0.391
   55SL       H  819   3.402   2.596   0.457
   55SL       H  820   3.539   2.591   0.658
   55SL       H  821   3.662   2.490   0.579
   55SL       H  822   3.376   2.406   0.650
   55SL       H  823   3.524   2.338   0.718
   55SL       H  824   3.411   2.212   0.510
   55SL       H  825   3.588   2.239   0.506
   56SL       O  826   3.897   3.416   2.845
   56SL       S  827   3.913   3.344   2.970
   56SL       O  828   3.938   3.412   3.095
   56SL       C  829   3.773   3.235   2.990
   56SL       C  830   3.834   3.097   3.014
   56SL       C  831   3.958   3.089   2.923
   56SL       C  832   4.035   3.216   2.948
   56SL       H  833   3.711   3.268   3.074
   56SL       H  834   3.715   3.236   2.898
   56SL       H  835   3.763   3.017   2.991
   56SL       H  836   3.865   3.087   3.119
   56SL       H  837   3.925   3.084   2.818
   56SL       H  838   4.018   3.000   2.944
   56SL       H  839   4.101   3.243   2.865
   56SL       H  840   4.093   3.210   3.040
   57SL       O  841   4.094   3.307   0.656
   57SL       S  842   3.957   3.291   0.698
   57SL       O  843   3.920   3.275   0.837
   57SL       C  844   3.861   3.424   0.628
   57SL       C  845   3.746   3.356   0.554
   57SL       C  846   3.805   3.229   0.492
   57SL       C  847   3.881   3.160   0.603
   57SL       H  848   3.826   3.491   0.707
   57SL       H  849   3.925   3.479   0.558
   57SL       H  850   3.702   3.421   0.478
   57SL       H  851   3.667   3.329   0.625
   57SL       H  852   3.873   3.257   0.410
   57SL       H  853   3.727   3.164   0.450
   57SL       H  854   3.959   3.093   0.565
   57SL       H  855   3.814   3.105   0.669
   58SL       O  856   3.825   2.272   1.166
   58SL       S  857   3.838   2.260   1.309
   58SL       O  858   3.895   2.142   1.371
   58SL       C  859   3.923   2.404   1.371
   58SL       C  860   3.832   2.460   1.481
   58SL       C  861   3.688   2.439   1.431
   58SL       C  862   3.681   2.295   1.385
   58SL       H  863   4.022   2.377   1.409
   58SL       H  864   3.933   2.476   1.289
   58SL       H  865   3.852   2.565   1.500
   58SL       H  866   3.847   2.404   1.574
   58SL       H  867   3.669   2.507   1.347
   58SL       H  868   3.615   2.460   1.509
   58SL       H  869   3.600   2.277   1.313
   58SL       H  870   3.669   2.227   1.471
   59SL       O  871   3.195   1.355   1.748
   59SL       S  872   3.132   1.472   1.692
   59SL       O  873   3.107   1.485   1.549
   59SL       C  874   2.980   1.502   1.780
   59SL       C  875   2.989   1.647   1.826
   59SL       C  876   3.135   1.671   1.864
   59SL       C  877   3.217   1.618   1.749
   59SL       H  878   2.894   1.484   1.714
   59SL       H  879   2.976   1.434   1.865
   59SL       H  880   2.921   1.667   1.910
   59SL       H  881   2.961   1.715   1.744
   59SL       H  882   3.157   1.614   1.956
   59SL       H  883   3.156   1.776   1.884
   59SL       H  884   3.319   1.592   1.778
   59SL       H  885   3.220   1.690   1.667
   60SL       O  886   1.849   3.942   1.615
   60SL       S  887   1.748   3.893   1.524
   60SL       O  888   1.662   3.781   1.559
   60SL       C  889   1.646   4.030   1.473
   60SL       C  890   1.649   4.026   1.320
   60SL       C  891   1.790   3.984   1.281
   60SL       C  892   1.822   3.862   1.365
   60SL       H  893   1.545   4.020   1.514
   60SL       H  894   1.692   4.122   1.510
   60SL       H  895   1.622   4.123   1.277
   60SL       H  896   1.576   3.952   1.284
   60SL       H  897   1.860   4.066   1.304
   60SL       H  898   1.798   3.962   1.175
   60SL       H  899   1.929   3.846   1.378
   60SL       H  900   1.775   3.772   1.324
   61SL       O  901   3.749   2.521   0.847
   61SL       S  902   3.691   2.585   0.962
   61SL       O  903   3.767   2.610   1.083
   61SL       C  904   3.614   2.737   0.909
   61SL       C  905   3.470   2.728   0.961
   61SL       C  906   3.428   2.582   0.945
   61SL       C  907   3.540   2.500   1.005
   61SL       H  908   3.668   2.822   0.950
   61SL       H  909   3.616   2.740   0.800
   61SL       H  910   3.404   2.796   0.905
   61SL       H  911   3.466   2.757   1.066
   61SL       H  912   3.417   2.559   0.838
   61SL       H  913   3.332   2.562   0.993
   61SL       H  914   3.543   2.397   0.967
   61SL       H  915   3.533   2.498   1.115
   62SL       O  916   0.901   2.260   3.642
   62SL       S  917   0.905   2.355   3.750
   62SL       O  918   0.862   2.321   3.884
   62SL       C  919   1.068   2.426   3.758
   62SL       C  920   1.047   2.577   3.753
   62SL       C  921   0.930   2.600   3.657
   62SL       C  922   0.821   2.505   3.700
   62SL       H  923   1.119   2.393   3.849
   62SL       H  924   1.124   2.392   3.670
   62SL       H  925   1.137   2.629   3.720
   62SL       H  926   1.020   2.614   3.853
   62SL       H  927   0.963   2.577   3.554
   62SL       H  928   0.896   2.704   3.658
   62SL       H  929   0.750   2.482   3.619
   62SL       H  930   0.767   2.543   3.786
   63SL       O  931   1.806   3.218   1.693
   63SL       S  932   1.697   3.238   1.600
   63SL       O  933   1.720   3.252   1.458
   63SL       C  934   1.575   3.111   1.627
   63SL       C  935   1.444   3.185   1.648
   63SL       C  936   1.479   3.311   1.728
   63SL       C  937   1.597   3.374   1.656
   63SL       H  938   1.572   3.043   1.542
   63SL       H  939   1.603   3.055   1.717
   63SL       H  940   1.371   3.123   1.701
   63SL       H  941   1.401   3.214   1.551
   63SL       H  942   1.508   3.283   1.830
   63SL       H  943   1.395   3.380   1.734
   63SL       H  944   1.656   3.439   1.721
   63SL       H  945   1.564   3.430   1.568
   64SL       O  946   2.851   2.261   3.874
   64SL       S  947   2.994   2.251   3.886
   64SL       O  948   3.079   2.369   3.887
   64SL       C  949   3.033   2.151   4.029
   64SL       C  950   3.126   2.042   3.977
   64SL       C  951   3.075   2.006   3.837
   64SL       C  952   3.056   2.137   3.764
   64SL       H  953   3.079   2.213   4.107
   64SL       H  954   2.939   2.108   4.066
   64SL       H  955   3.127   1.955   4.043
   64SL       H  956   3.229   2.081   3.970
   64SL       H  957   2.979   1.953   3.847
   64SL       H  958   3.144   1.940   3.785
   64SL       H  959   2.985   2.129   3.681
   64SL       H  960   3.152   2.176   3.728
   65SL       O  961   1.299   1.703   2.835
   65SL       S  962   1.205   1.612   2.774
   65SL       O  963   1.078   1.658   2.720
   65SL       C  964   1.289   1.516   2.650
   65SL       C  965   1.260   1.370   2.686
   65SL       C  966   1.262   1.363   2.839
   65SL       C  967   1.174   1.477   2.887
   65SL       H  968   1.253   1.542   2.551
   65SL       H  969   1.396   1.537   2.658
   65SL       H  970   1.334   1.303   2.642
   65SL       H  971   1.161   1.341   2.649
   65SL       H  972   1.365   1.377   2.875
   65SL       H  973   1.226   1.267   2.876
   65SL       H  974   1.196   1.508   2.989
   65SL       H  975   1.068   1.450   2.879
   66SL       O  976   0.366   3.157   1.110
   66SL       S  977   0.392   3.298   1.125
   66SL       O  978   0.520   3.348   1.172
   66SL       C  979   0.351   3.381   0.973
   66SL       C  980   0.255   3.492   1.013
   66SL       C  981   0.167   3.435   1.124
   66SL       C  982   0.263   3.372   1.224
   66SL       H  983   0.441   3.419   0.925
   66SL       H  984   0.301   3.308   0.907
   66SL       H  985   0.194   3.525   0.928
   66SL       H  986   0.310   3.579   1.051
   66SL       H  987   0.100   3.358   1.082
   66SL       H  988   0.105   3.511   1.171
   66SL       H  989   0.215   3.294   1.285
   66SL       H  990   0.308   3.447   1.288
   67SL       O  991   4.090   2.867   3.103
   67SL       S  992   3.972   2.806   3.161
   67SL       O  993   3.861   2.885   3.210
   67SL       C  994   3.910   2.684   3.046
   67SL       C  995   3.899   2.555   3.128
   67SL       C  996   4.019   2.555   3.223
   67SL       C  997   4.022   2.691   3.288
   67SL       H  998   3.814   2.716   3.005
   67SL       H  999   3.984   2.672   2.966
   67SL       H 1000   3.899   2.467   3.064
   67SL       H 1001   3.806   2.556   3.186
   67SL       H 1002   4.112   2.539   3.165
   67SL       H 1003   4.013   2.475   3.297
   67SL       H 1004   4.121   2.719   3.326
   67SL       H 1005   3.948   2.698   3.369
   68SL       O 1006   3.577   2.419   2.307
   68SL       S 1007   3.497   2.359   2.411
   68SL       O 1008   3.521   2.385   2.552
   68SL       C 1009   3.325   2.388   2.375
   68SL       C 1010   3.260   2.250   2.378
   68SL       C 1011   3.361   2.154   2.316
   68SL       C 1012   3.493   2.182   2.386
   68SL       H 1013   3.282   2.456   2.449
   68SL       H 1014   3.318   2.432   2.276
   68SL       H 1015   3.165   2.249   2.322
   68SL       H 1016   3.238   2.220   2.481
   68SL       H 1017   3.371   2.175   2.208
   68SL       H 1018   3.331   2.050   2.327
   68SL       H 1019   3.580   2.151   2.327
   68SL       H 1020   3.496   2.134   2.484
   69SL       O 1021   1.975   2.190   0.599
   69SL       S 1022   1.913   2.280   0.505
   69SL       O 1023   1.946   2.279   0.364
   69SL       C 1024   1.736   2.267   0.523
   69SL       C 1025   1.688   2.410   0.545
   69SL       C 1026   1.794   2.478   0.631
   69SL       C 1027   1.927   2.447   0.566
   69SL       H 1028   1.692   2.221   0.434
   69SL       H 1029   1.715   2.205   0.611
   69SL       H 1030   1.589   2.413   0.594
   69SL       H 1031   1.679   2.463   0.449
   69SL       H 1032   1.791   2.436   0.733
   69SL       H 1033   1.778   2.586   0.640
   69SL       H 1034   2.012   2.454   0.635
   69SL       H 1035   1.944   2.512   0.479
   70SL       O 1036   3.427   4.120   3.373
   70SL       S 1037   3.409   3.992   3.308
   70SL       O 1038   3.514   3.892   3.304
   70SL       C 1039   3.260   3.918   3.371
   70SL       C 1040   3.177   3.885   3.247
   70SL       C 1041   3.199   4.000   3.149
   70SL       C 1042   3.349   4.020   3.142
   70SL       H 1043   3.284   3.829   3.430
   70SL       H 1044   3.209   3.991   3.433
   70SL       H 1045   3.071   3.873   3.272
   70SL       H 1046   3.211   3.791   3.202
   70SL       H 1047   3.150   4.091   3.188
   70SL       H 1048   3.157   3.978   3.051
   70SL       H 1049   3.377   4.120   3.109
   70SL       H 1050   3.396   3.945   3.077
   71SL       O 1051   1.430   1.720   3.597
   71SL       S 1052   1.308   1.670   3.655
   71SL       O 1053   1.223   1.575   3.586
   71SL       C 1054   1.344   1.607   3.818
   71SL       C 1055   1.246   1.679   3.910
   71SL       C 1056   1.233   1.821   3.857
   71SL       C 1057   1.208   1.808   3.708
   71SL       H 1058   1.332   1.499   3.820
   71SL       H 1059   1.447   1.634   3.843
   71SL       H 1060   1.281   1.678   4.014
   71SL       H 1061   1.148   1.629   3.907
   71SL       H 1062   1.328   1.876   3.875
   71SL       H 1063   1.153   1.877   3.906
   71SL       H 1064   1.236   1.897   3.652
   71SL       H 1065   1.103   1.783   3.688
   72SL       O 1066   1.349   4.111   1.556
   72SL       S 1067   1.265   3.994   1.568
   72SL       O 1068   1.144   3.994   1.647
   72SL       C 1069   1.227   3.935   1.404
   72SL       C 1070   1.267   3.787   1.405
   72SL       C 1071   1.395   3.779   1.489
   72SL       C 1072   1.365   3.855   1.617
   72SL       H 1073   1.121   3.949   1.383
   72SL       H 1074   1.287   3.991   1.332
   72SL       H 1075   1.284   3.750   1.303
   72SL       H 1076   1.188   3.727   1.451
   72SL       H 1077   1.478   3.827   1.435
   72SL       H 1078   1.423   3.675   1.509
   72SL       H 1079   1.456   3.890   1.667
   72SL       H 1080   1.306   3.794   1.686
   73SL       O 1081   1.531   1.358   2.723
   73SL       S 1082   1.572   1.265   2.621
   73SL       O 1083   1.540   1.284   2.481
   73SL       C 1084   1.748   1.238   2.636
   73SL       C 1085   1.764   1.087   2.646
   73SL       C 1086   1.646   1.037   2.729
   73SL       C 1087   1.523   1.100   2.669
   73SL       H 1088   1.800   1.280   2.550
   73SL       H 1089   1.782   1.287   2.728
   73SL       H 1090   1.860   1.060   2.692
   73SL       H 1091   1.761   1.042   2.546
   73SL       H 1092   1.659   1.070   2.834
   73SL       H 1093   1.640   0.928   2.730
   73SL       H 1094   1.439   1.106   2.739
   73SL       H 1095   1.492   1.047   2.579
   74SL       O 1096   2.643   1.683   2.209
   74SL       S 1097   2.722   1.649   2.325
   74SL       O 1098   2.851   1.585   2.315
   74SL       C 1099   2.738   1.795   2.427
   74SL       C 1100   2.690   1.752   2.565
   74SL       C 1101   2.573   1.656   2.542
   74SL       C 1102   2.621   1.556   2.439
   74SL       H 1103   2.841   1.830   2.427
   74SL       H 1104   2.672   1.873   2.386
   74SL       H 1105   2.660   1.838   2.626
   74SL       H 1106   2.770   1.700   2.618
   74SL       H 1107   2.487   1.713   2.503
   74SL       H 1108   2.541   1.607   2.634
   74SL       H 1109   2.538   1.509   2.385
   74SL       H 1110   2.684   1.480   2.485
   75SL       O 1111   1.916   1.720   0.235
   75SL       S 1112   1.891   1.805   0.349
   75SL       O 1113   1.765   1.801   0.421
   75SL       C 1114   2.025   1.785   0.465
   75SL       C 1115   2.075   1.926   0.492
   75SL       C 1116   2.066   2.001   0.359
   75SL       C 1117   1.927   1.974   0.306
   75SL       H 1118   1.989   1.735   0.556
   75SL       H 1119   2.102   1.725   0.417
   75SL       H 1120   2.177   1.926   0.531
   75SL       H 1121   2.011   1.975   0.566
   75SL       H 1122   2.142   1.961   0.290
   75SL       H 1123   2.084   2.108   0.371
   75SL       H 1124   1.920   1.986   0.197
   75SL       H 1125   1.853   2.037   0.355
   76SL       O 1126   2.259   3.626   3.019
   76SL       S 1127   2.297   3.512   3.100
   76SL       O 1128   2.399   3.521   3.202
   76SL       C 1129   2.150   3.441   3.170
   76SL       C 1130   2.155   3.293   3.132
   76SL       C 1131   2.212   3.288   2.990
   76SL       C 1132   2.336   3.375   2.992
   76SL       H 1133   2.149   3.455   3.279
   76SL       H 1134   2.063   3.490   3.126
   76SL       H 1135   2.055   3.247   3.136
   76SL       H 1136   2.221   3.238   3.200
   76SL       H 1137   2.138   3.330   2.919
   76SL       H 1138   2.234   3.187   2.958
   76SL       H 1139   2.364   3.413   2.893
   76SL       H 1140   2.421   3.321   3.036
   77SL       O 1141   1.612   2.805   2.329
   77SL       S 1142   1.752   2.842   2.338
   77SL       O 1143   1.846   2.812   2.232
   77SL       C 1144   1.763   3.015   2.379
   77SL       C 1145   1.852   3.021   2.502
   77SL       C 1146   1.816   2.899   2.587
   77SL       C 1147   1.818   2.781   2.492
   77SL       H 1148   1.804   3.071   2.294
   77SL       H 1149   1.662   3.051   2.402
   77SL       H 1150   1.837   3.114   2.558
   77SL       H 1151   1.957   3.016   2.473
   77SL       H 1152   1.715   2.912   2.629
   77SL       H 1153   1.885   2.885   2.670
   77SL       H 1154   1.757   2.697   2.527
   77SL       H 1155   1.920   2.747   2.473
   78SL       O 1156   0.182   0.454   2.473
   78SL       S 1157   0.308   0.445   2.404
   78SL       O 1158   0.403   0.554   2.404
   78SL       C 1159   0.391   0.296   2.455
   78SL       C 1160   0.424   0.222   2.326
   78SL       C 1161   0.305   0.246   2.232
   78SL       C 1162   0.278   0.395   2.235
   78SL       H 1163   0.480   0.320   2.513
   78SL       H 1164   0.321   0.238   2.516
   78SL       H 1165   0.440   0.115   2.343
   78SL       H 1166   0.515   0.264   2.281
   78SL       H 1167   0.217   0.191   2.270
   78SL       H 1168   0.325   0.211   2.131
   78SL       H 1169   0.176   0.421   2.207
   78SL       H 1170   0.349   0.449   2.171
   79SL       O 1171   1.255   2.275   2.669
   79SL       S 1172   1.359   2.189   2.618
   79SL       O 1173   1.450   2.231   2.514
   79SL       C 1174   1.453   2.127   2.756
   79SL       C 1175   1.452   1.975   2.741
   79SL       C 1176   1.313   1.939   2.689
   79SL       C 1177   1.287   2.032   2.572
   79SL       H 1178   1.555   2.169   2.754
   79SL       H 1179   1.403   2.157   2.849
   79SL       H 1180   1.474   1.925   2.836
   79SL       H 1181   1.528   1.944   2.668
   79SL       H 1182   1.239   1.956   2.768
   79SL       H 1183   1.306   1.835   2.659
   79SL       H 1184   1.180   2.046   2.551
   79SL       H 1185   1.338   1.998   2.482
   80SL       O 1186   1.424   2.726   2.232
   80SL       S 1187   1.462   2.649   2.116
   80SL       O 1188   1.468   2.709   1.984
   80SL       C 1189   1.616   2.567   2.149
   80SL       C 1190   1.590   2.420   2.119
   80SL       C 1191   1.448   2.391   2.166
   80SL       C 1192   1.362   2.502   2.108
   80SL       H 1193   1.696   2.609   2.087
   80SL       H 1194   1.640   2.581   2.255
   80SL       H 1195   1.663   2.355   2.169
   80SL       H 1196   1.598   2.402   2.011
   80SL       H 1197   1.444   2.395   2.276
   80SL       H 1198   1.413   2.293   2.135
   80SL       H 1199   1.269   2.517   2.164
   80SL       H 1200   1.339   2.482   2.003
   81SL       O 1201   0.667   2.237   2.342
   81SL       S 1202   0.742   2.360   2.352
   81SL       O 1203   0.741   2.459   2.246
   81SL       C 1204   0.701   2.440   2.506
   81SL       C 1205   0.835   2.465   2.574
   81SL       C 1206   0.922   2.343   2.543
   81SL       C 1207   0.911   2.322   2.393
   81SL       H 1208   0.645   2.532   2.486
   81SL       H 1209   0.639   2.371   2.564
   81SL       H 1210   0.822   2.479   2.682
   81SL       H 1211   0.882   2.555   2.534
   81SL       H 1212   0.883   2.256   2.597
   81SL       H 1213   1.025   2.358   2.574
   81SL       H 1214   0.934   2.219   2.363
   81SL       H 1215   0.975   2.392   2.339
   82SL       O 1216   3.050   2.435   3.679
   82SL       S 1217   3.102   2.444   3.545
   82SL       O 1218   3.216   2.366   3.501
   82SL       C 1219   2.968   2.420   3.430
   82SL       C 1220   2.972   2.541   3.338
   82SL       C 1221   3.011   2.660   3.426
   82SL       C 1222   3.131   2.616   3.505
   82SL       H 1223   2.980   2.326   3.376
   82SL       H 1224   2.874   2.418   3.487
   82SL       H 1225   2.876   2.557   3.288
   82SL       H 1226   3.048   2.527   3.260
   82SL       H 1227   2.927   2.684   3.493
   82SL       H 1228   3.032   2.749   3.367
   82SL       H 1229   3.145   2.673   3.598
   82SL       H 1230   3.222   2.621   3.445
   83SL       O 1231   2.351   2.813   2.469
   83SL       S 1232   2.377   2.671   2.465
   83SL       O 1233   2.383   2.598   2.340
   83SL       C 1234   2.525   2.638   2.558
   83SL       C 1235   2.485   2.530   2.659
   83SL       C 1236   2.343   2.564   2.703
   83SL       C 1237   2.264   2.588   2.575
   83SL       H 1238   2.605   2.605   2.491
   83SL       H 1239   2.555   2.730   2.610
   83SL       H 1240   2.554   2.527   2.744
   83SL       H 1241   2.486   2.432   2.611
   83SL       H 1242   2.344   2.656   2.764
   83SL       H 1243   2.298   2.485   2.763
   83SL       H 1244   2.176   2.650   2.591
   83SL       H 1245   2.236   2.494   2.528
   84SL       O 1246   0.965   3.874   2.556
   84SL       S 1247   1.002   3.857   2.694
   84SL       O 1248   0.926   3.774   2.785
   84SL       C 1249   1.173   3.809   2.702
   84SL       C 1250   1.239   3.910   2.795
   84SL       C 1251   1.172   4.044   2.767
   84SL       C 1252   1.023   4.018   2.768
   84SL       H 1253   1.182   3.706   2.738
   84SL       H 1254   1.215   3.817   2.601
   84SL       H 1255   1.347   3.914   2.780
   84SL       H 1256   1.221   3.882   2.900
   84SL       H 1257   1.204   4.080   2.667
   84SL       H 1258   1.201   4.121   2.839
   84SL       H 1259   0.966   4.093   2.712
   84SL       H 1260   0.986   4.013   2.871
   85SL       O 1261   0.580   1.843   2.307
   85SL       S 1262   0.459   1.776   2.267
   85SL       O 1263   0.434   1.637   2.298
   85SL       C 1264   0.320   1.873   2.323
   85SL       C 1265   0.235   1.896   2.199
   85SL       C 1266   0.333   1.916   2.083
   85SL       C 1267   0.432   1.802   2.093
   85SL       H 1268   0.266   1.820   2.402
   85SL       H 1269   0.358   1.968   2.362
   85SL       H 1270   0.169   1.982   2.211
   85SL       H 1271   0.172   1.808   2.179
   85SL       H 1272   0.384   2.013   2.096
   85SL       H 1273   0.283   1.918   1.986
   85SL       H 1274   0.528   1.825   2.044
   85SL       H 1275   0.391   1.710   2.051
   86SL       O 1276   3.253   1.562   3.008
   86SL       S 1277   3.225   1.696   2.961
   86SL       O 1278   3.317   1.805   2.985
   86SL       C 1279   3.187   1.689   2.788
   86SL       C 1280   3.052   1.760   2.774
   86SL       C 1281   2.971   1.721   2.897
   86SL       C 1282   3.062   1.744   3.016
   86SL       H 1283   3.266   1.738   2.730
   86SL       H 1284   3.179   1.584   2.758
   86SL       H 1285   3.001   1.731   2.681
   86SL       H 1286   3.067   1.869   2.772
   86SL       H 1287   2.944   1.615   2.891
   86SL       H 1288   2.879   1.779   2.906
   86SL       H 1289   3.034   1.685   3.104
   86SL       H 1290   3.066   1.850   3.042
   87SL       O 1291   3.183   2.922   0.906
   87SL       S 1292   3.073   2.910   0.813
   87SL       O 1293   3.069   2.985   0.689
   87SL       C 1294   3.047   2.737   0.778
   87SL       C 1295   2.899   2.713   0.807
   87SL       C 1296   2.865   2.798   0.930
   87SL       C 1297   2.920   2.936   0.900
   87SL       H 1298   3.073   2.716   0.674
   87SL       H 1299   3.110   2.679   0.846
   87SL       H 1300   2.879   2.607   0.825
   87SL       H 1301   2.838   2.745   0.722
   87SL       H 1302   2.915   2.756   1.018
   87SL       H 1303   2.758   2.801   0.950
   87SL       H 1304   2.938   2.995   0.991
   87SL       H 1305   2.853   2.992   0.834
   88SL       O 1306   0.374   0.300   0.136
   88SL       S 1307   0.316   0.363   0.252
   88SL       O 1308   0.265   0.286   0.363
   88SL       C 1309   0.429   0.486   0.313
   88SL       C 1310   0.348   0.615   0.322
   88SL       C 1311   0.255   0.614   0.201
   88SL       C 1312   0.189   0.478   0.199
   88SL       H 1313   0.469   0.455   0.410
   88SL       H 1314   0.511   0.496   0.241
   88SL       H 1315   0.413   0.703   0.322
   88SL       H 1316   0.289   0.616   0.414
   88SL       H 1317   0.314   0.629   0.109
   88SL       H 1318   0.181   0.694   0.205
   88SL       H 1319   0.153   0.449   0.100
   88SL       H 1320   0.107   0.472   0.272
   89SL       O 1321   1.721   1.183   2.369
   89SL       S 1322   1.705   1.090   2.260
   89SL       O 1323   1.623   1.121   2.144
   89SL       C 1324   1.867   1.039   2.205
   89SL       C 1325   1.864   0.887   2.208
   89SL       C 1326   1.782   0.849   2.331
   89SL       C 1327   1.655   0.932   2.324
   89SL       H 1328   1.886   1.079   2.104
   89SL       H 1329   1.941   1.078   2.275
   89SL       H 1330   1.965   0.845   2.213
   89SL       H 1331   1.815   0.848   2.118
   89SL       H 1332   1.839   0.874   2.422
   89SL       H 1333   1.760   0.742   2.335
   89SL       H 1334   1.607   0.945   2.422
   89SL       H 1335   1.584   0.888   2.254
   90SL       O 1336   3.353   0.286   2.937
   90SL       S 1337   3.215   0.324   2.951
   90SL       O 1338   3.151   0.336   3.081
   90SL       C 1339   3.189   0.475   2.860
   90SL       C 1340   3.072   0.446   2.767
   90SL       C 1341   3.089   0.301   2.721
   90SL       C 1342   3.114   0.221   2.847
   90SL       H 1343   3.168   0.558   2.929
   90SL       H 1344   3.280   0.497   2.803
   90SL       H 1345   3.069   0.515   2.682
   90SL       H 1346   2.977   0.456   2.822
   90SL       H 1347   3.176   0.295   2.654
   90SL       H 1348   3.002   0.265   2.667
   90SL       H 1349   3.167   0.126   2.827
   90SL       H 1350   3.021   0.200   2.900
   91SL       O 1351   0.235   2.298   3.272
   91SL       S 1352   0.258   2.232   3.146
   91SL       O 1353   0.201   2.282   3.022
   91SL       C 1354   0.433   2.210   3.124
   91SL       C 1355   0.451   2.061   3.096
   91SL       C 1356   0.350   1.989   3.184
   91SL       C 1357   0.218   2.059   3.162
   91SL       H 1358   0.469   2.273   3.042
   91SL       H 1359   0.483   2.238   3.217
   91SL       H 1360   0.554   2.028   3.117
   91SL       H 1361   0.430   2.040   2.990
   91SL       H 1362   0.381   1.997   3.290
   91SL       H 1363   0.343   1.882   3.160
   91SL       H 1364   0.148   2.045   3.246
   91SL       H 1365   0.171   2.027   3.069
   92SL       O 1366   3.492   1.828   1.158
   92SL       S 1367   3.361   1.882   1.187
   92SL       O 1368   3.279   1.831   1.296
   92SL       C 1369   3.374   2.059   1.203
   92SL       C 1370   3.270   2.115   1.106
   92SL       C 1371   3.272   2.023   0.984
   92SL       C 1372   3.263   1.882   1.038
   92SL       H 1373   3.356   2.090   1.306
   92SL       H 1374   3.475   2.088   1.172
   92SL       H 1375   3.293   2.219   1.079
   92SL       H 1376   3.171   2.113   1.152
   92SL       H 1377   3.366   2.038   0.929
   92SL       H 1378   3.190   2.045   0.915
   92SL       H 1379   3.303   1.808   0.968
   92SL       H 1380   3.160   1.857   1.065
   93SL       O 1381   1.769   3.283   1.092
   93SL       S 1382   1.694   3.403   1.065
   93SL       O 1383   1.559   3.422   1.115
   93SL       C 1384   1.793   3.544   1.111
   93SL       C 1385   1.796   3.633   0.986
   93SL       C 1386   1.803   3.538   0.867
   93SL       C 1387   1.694   3.434   0.889
   93SL       H 1388   1.749   3.594   1.197
   93SL       H 1389   1.893   3.508   1.135
   93SL       H 1390   1.881   3.702   0.988
   93SL       H 1391   1.704   3.692   0.981
   93SL       H 1392   1.902   3.490   0.864
   93SL       H 1393   1.789   3.591   0.772
   93SL       H 1394   1.713   3.341   0.835
   93SL       H 1395   1.596   3.474   0.862
   94SL       O 1396   2.200   0.988   1.558
   94SL       S 1397   2.200   0.913   1.434
   94SL       O 1398   2.081   0.897   1.354
   94SL       C 1399   2.331   0.976   1.331
   94SL       C 1400   2.414   0.853   1.293
   94SL       C 1401   2.416   0.764   1.418
   94SL       C 1402   2.272   0.753   1.463
   94SL       H 1403   2.289   1.027   1.243
   94SL       H 1404   2.390   1.046   1.390
   94SL       H 1405   2.515   0.882   1.262
   94SL       H 1406   2.367   0.800   1.210
   94SL       H 1407   2.477   0.812   1.496
   94SL       H 1408   2.460   0.666   1.397
   94SL       H 1409   2.263   0.727   1.569
   94SL       H 1410   2.217   0.680   1.402
   95SL       O 1411   2.890   0.728   3.670
   95SL       S 1412   2.878   0.639   3.557
   95SL       O 1413   2.749   0.603   3.501
   95SL       C 1414   2.983   0.700   3.426
   95SL       C 1415   3.071   0.581   3.387
   95SL       C 1416   3.103   0.508   3.518
   95SL       C 1417   2.971   0.490   3.589
   95SL       H 1418   2.922   0.735   3.342
   95SL       H 1419   3.043   0.782   3.465
   95SL       H 1420   3.162   0.614   3.336
   95SL       H 1421   3.016   0.514   3.320
   95SL       H 1422   3.171   0.571   3.579
   95SL       H 1423   3.153   0.413   3.500
   95SL       H 1424   2.982   0.477   3.697
   95SL       H 1425   2.915   0.406   3.547
   96SL       O 1426   0.547   3.439   3.653
   96SL       S 1427   0.417   3.392   3.613
   96SL       O 1428   0.298   3.475   3.625
   96SL       C 1429   0.428   3.330   3.447
   96SL       C 1430   0.371   3.189   3.453
   96SL       C 1431   0.417   3.131   3.587
   96SL       C 1432   0.385   3.235   3.691
   96SL       H 1433   0.372   3.395   3.378
   96SL       H 1434   0.533   3.328   3.418
   96SL       H 1435   0.405   3.128   3.368
   96SL       H 1436   0.261   3.192   3.450
   96SL       H 1437   0.526   3.113   3.583
   96SL       H 1438   0.369   3.035   3.609
   96SL       H 1439   0.446   3.226   3.781
   96SL       H 1440   0.279   3.232   3.718
   97SL       O 1441   1.816   3.335   2.298
   97SL       S 1442   1.712   3.361   2.201
   97SL       O 1443   1.572   3.335   2.228
   97SL       C 1444   1.730   3.529   2.144
   97SL       C 1445   1.737   3.519   1.991
   97SL       C 1446   1.817   3.392   1.961
   97SL       C 1447   1.756   3.283   2.046
   97SL       H 1448   1.645   3.590   2.178
   97SL       H 1449   1.823   3.569   2.184
   97SL       H 1450   1.784   3.607   1.947
   97SL       H 1451   1.636   3.509   1.950
   97SL       H 1452   1.922   3.408   1.989
   97SL       H 1453   1.814   3.366   1.855
   97SL       H 1454   1.825   3.200   2.066
   97SL       H 1455   1.664   3.245   2.001
   98SL       O 1456   1.504   2.585   1.798
   98SL       S 1457   1.613   2.586   1.702
   98SL       O 1458   1.595   2.638   1.567
   98SL       C 1459   1.754   2.665   1.777
   98SL       C 1460   1.868   2.565   1.760
   98SL       C 1461   1.807   2.427   1.780
   98SL       C 1462   1.684   2.423   1.692
   98SL       H 1463   1.774   2.761   1.727
   98SL       H 1464   1.731   2.682   1.882
   98SL       H 1465   1.948   2.585   1.832
   98SL       H 1466   1.911   2.573   1.659
   98SL       H 1467   1.778   2.414   1.886
   98SL       H 1468   1.877   2.347   1.755
   98SL       H 1469   1.610   2.349   1.725
   98SL       H 1470   1.711   2.404   1.588
   99SL       O 1471   3.202   1.291   2.763
   99SL       S 1472   3.081   1.347   2.819
   99SL       O 1473   3.084   1.449   2.922
   99SL       C 1474   2.978   1.404   2.685
   99SL       C 1475   2.843   1.337   2.707
   99SL       C 1476   2.874   1.197   2.760
   99SL       C 1477   2.974   1.215   2.871
   99SL       H 1478   2.972   1.513   2.686
   99SL       H 1479   3.023   1.371   2.591
   99SL       H 1480   2.784   1.334   2.615
   99SL       H 1481   2.786   1.392   2.782
   99SL       H 1482   2.918   1.136   2.678
   99SL       H 1483   2.784   1.145   2.794
   99SL       H 1484   3.033   1.125   2.891
   99SL       H 1485   2.925   1.247   2.964
  100SL       O 1486   0.561   3.500   3.964
  100SL       S 1487   0.480   3.601   3.901
  100SL       O 1488   0.426   3.584   3.767
  100SL       C 1489   0.348   3.646   4.011
  100SL       C 1490   0.357   3.798   4.024
  100SL       C 1491   0.506   3.831   4.026
  100SL       C 1492   0.566   3.757   3.908
  100SL       H 1493   0.252   3.613   3.970
  100SL       H 1494   0.365   3.597   4.107
  100SL       H 1495   0.307   3.833   4.115
  100SL       H 1496   0.309   3.846   3.939
  100SL       H 1497   0.550   3.796   4.120
  100SL       H 1498   0.524   3.939   4.019
  100SL       H 1499   0.674   3.739   3.920
  100SL       H 1500   0.547   3.810   3.814
  101SL       O 1501   1.317   3.138   2.647
  101SL       S 1502   1.450   3.129   2.591
  101SL       O 1503   1.507   3.002   2.550
  101SL       C 1504   1.463   3.245   2.456
  101SL       C 1505   1.587   3.329   2.488
  101SL       C 1506   1.586   3.348   2.640
  101SL       C 1507   1.565   3.211   2.700
  101SL       H 1508   1.472   3.191   2.361
  101SL       H 1509   1.373   3.307   2.456
  101SL       H 1510   1.585   3.425   2.435
  101SL       H 1511   1.677   3.275   2.458
  101SL       H 1512   1.503   3.415   2.668
  101SL       H 1513   1.679   3.394   2.675
  101SL       H 1514   1.523   3.215   2.801
  101SL       H 1515   1.658   3.153   2.700
  102SL       O 1516   1.585   2.048   3.002
  102SL       S 1517   1.552   1.969   3.119
  102SL       O 1518   1.581   2.015   3.253
  102SL       C 1519   1.381   1.922   3.109
  102SL       C 1520   1.380   1.770   3.124
  102SL       C 1521   1.504   1.719   3.050
  102SL       C 1522   1.619   1.805   3.098
  102SL       H 1523   1.323   1.972   3.187
  102SL       H 1524   1.343   1.951   3.011
  102SL       H 1525   1.288   1.726   3.084
  102SL       H 1526   1.387   1.743   3.230
  102SL       H 1527   1.489   1.733   2.942
  102SL       H 1528   1.522   1.613   3.068
  102SL       H 1529   1.703   1.808   3.028
  102SL       H 1530   1.655   1.771   3.196
  103SL       O 1531   3.003   0.450   1.510
  103SL       S 1532   2.948   0.349   1.599
  103SL       O 1533   3.008   0.218   1.611
  103SL       C 1534   2.931   0.420   1.761
  103SL       C 1535   2.785   0.395   1.800
  103SL       C 1536   2.704   0.412   1.672
  103SL       C 1537   2.774   0.330   1.566
  103SL       H 1538   3.001   0.373   1.830
  103SL       H 1539   2.951   0.527   1.754
  103SL       H 1540   2.752   0.464   1.878
  103SL       H 1541   2.773   0.292   1.837
  103SL       H 1542   2.703   0.519   1.643
  103SL       H 1543   2.600   0.381   1.684
  103SL       H 1544   2.752   0.364   1.464
  103SL       H 1545   2.750   0.224   1.576
  104SL       O 1546   0.683   1.479   2.638
  104SL       S 1547   0.670   1.344   2.687
  104SL       O 1548   0.732   1.302   2.811
  104SL       C 1549   0.497   1.301   2.692
  104SL       C 1550   0.487   1.171   2.613
  104SL       C 1551   0.586   1.183   2.497
  104SL       C 1552   0.716   1.230   2.558
  104SL       H 1553   0.464   1.290   2.795
  104SL       H 1554   0.441   1.381   2.643
  104SL       H 1555   0.385   1.154   2.577
  104SL       H 1556   0.515   1.086   2.677
  104SL       H 1557   0.548   1.258   2.425
  104SL       H 1558   0.598   1.089   2.443
  104SL       H 1559   0.781   1.280   2.486
  104SL       H 1560   0.769   1.147   2.605
  105SL       O 1561   2.802   3.482   0.453
  105SL       S 1562   2.835   3.547   0.577
  105SL       O 1563   2.924   3.486   0.674
  105SL       C 1564   2.893   3.712   0.542
  105SL       C 1565   2.807   3.803   0.628
  105SL       C 1566   2.666   3.742   0.628
  105SL       C 1567   2.685   3.595   0.660
  105SL       H 1568   2.999   3.720   0.565
  105SL       H 1569   2.877   3.731   0.436
  105SL       H 1570   2.806   3.906   0.589
  105SL       H 1571   2.845   3.806   0.731
  105SL       H 1572   2.622   3.754   0.527
  105SL       H 1573   2.600   3.791   0.699
  105SL       H 1574   2.602   3.533   0.625
  105SL       H 1575   2.699   3.580   0.767
  106SL       O 1576   1.992   4.094   0.515
  106SL       S 1577   2.067   3.972   0.532
  106SL       O 1578   2.042   3.855   0.450
  106SL       C 1579   2.241   4.012   0.525
  106SL       C 1580   2.300   3.952   0.652
  106SL       C 1581   2.196   3.973   0.762
  106SL       C 1582   2.065   3.925   0.704
  106SL       H 1583   2.286   3.969   0.434
  106SL       H 1584   2.252   4.120   0.524
  106SL       H 1585   2.396   4.000   0.678
  106SL       H 1586   2.319   3.845   0.639
  106SL       H 1587   2.189   4.081   0.785
  106SL       H 1588   2.221   3.920   0.854
  106SL       H 1589   1.977   3.969   0.752
  106SL       H 1590   2.058   3.815   0.708
  107SL       O 1591   3.070   2.958   3.845
  107SL       S 1592   3.097   3.037   3.727
  107SL       O 1593   3.224   3.102   3.706
  107SL       C 1594   3.057   2.939   3.584
  107SL       C 1595   2.961   3.025   3.502
  107SL       C 1596   2.872   3.097   3.604
  107SL       C 1597   2.966   3.157   3.706
  107SL       H 1598   3.148   2.914   3.528
  107SL       H 1599   3.008   2.847   3.617
  107SL       H 1600   2.901   2.964   3.433
  107SL       H 1601   3.017   3.098   3.443
  107SL       H 1602   2.805   3.024   3.652
  107SL       H 1603   2.810   3.173   3.557
  107SL       H 1604   2.918   3.176   3.803
  107SL       H 1605   3.012   3.249   3.669
  108SL       O 1606   1.534   1.712   2.015
  108SL       S 1607   1.587   1.793   1.908
  108SL       O 1608   1.621   1.932   1.927
  108SL       C 1609   1.726   1.708   1.836
  108SL       C 1610   1.696   1.701   1.686
  108SL       C 1611   1.545   1.677   1.675
  108SL       C 1612   1.480   1.779   1.766
  108SL       H 1613   1.818   1.762   1.857
  108SL       H 1614   1.731   1.608   1.879
  108SL       H 1615   1.753   1.621   1.638
  108SL       H 1616   1.722   1.796   1.638
  108SL       H 1617   1.522   1.575   1.710
  108SL       H 1618   1.510   1.686   1.572
  108SL       H 1619   1.379   1.750   1.798
  108SL       H 1620   1.476   1.878   1.717
  109SL       O 1621   1.117   2.856   2.559
  109SL       S 1622   1.187   2.741   2.612
  109SL       O 1623   1.132   2.661   2.720
  109SL       C 1624   1.230   2.633   2.476
  109SL       C 1625   1.380   2.611   2.490
  109SL       C 1626   1.439   2.744   2.538
  109SL       C 1627   1.353   2.788   2.654
  109SL       H 1628   1.173   2.540   2.482
  109SL       H 1629   1.207   2.685   2.383
  109SL       H 1630   1.425   2.578   2.396
  109SL       H 1631   1.400   2.533   2.565
  109SL       H 1632   1.433   2.817   2.456
  109SL       H 1633   1.544   2.734   2.566
  109SL       H 1634   1.358   2.896   2.672
  109SL       H 1635   1.381   2.734   2.746
  110SL       O 1636   1.875   0.473   3.317
  110SL       S 1637   1.846   0.428   3.451
  110SL       O 1638   1.919   0.477   3.567
  110SL       C 1639   1.671   0.449   3.481
  110SL       C 1640   1.622   0.312   3.527
  110SL       C 1641   1.700   0.209   3.445
  110SL       C 1642   1.846   0.250   3.455
  110SL       H 1643   1.654   0.527   3.555
  110SL       H 1644   1.624   0.477   3.386
  110SL       H 1645   1.514   0.301   3.513
  110SL       H 1646   1.644   0.298   3.634
  110SL       H 1647   1.667   0.213   3.340
  110SL       H 1648   1.685   0.107   3.481
  110SL       H 1649   1.906   0.212   3.372
  110SL       H 1650   1.889   0.218   3.550
  111SL       O 1651   1.283   1.210   3.303
  111SL       S 1652   1.329   1.132   3.415
  111SL       O 1653   1.300   1.169   3.552
  111SL       C 1654   1.280   0.962   3.390
  111SL       C 1655   1.408   0.881   3.403
  111SL       C 1656   1.519   0.966   3.340
  111SL       C 1657   1.504   1.104   3.399
  111SL       H 1658   1.204   0.934   3.463
  111SL       H 1659   1.239   0.953   3.289
  111SL       H 1660   1.399   0.783   3.355
  111SL       H 1661   1.431   0.864   3.509
  111SL       H 1662   1.503   0.969   3.231
  111SL       H 1663   1.618   0.924   3.358
  111SL       H 1664   1.548   1.182   3.336
  111SL       H 1665   1.548   1.109   3.499
  112SL       O 1666   1.320   3.482   1.264
  112SL       S 1667   1.257   3.417   1.377
  112SL       O 1668   1.319   3.413   1.508
  112SL       C 1669   1.091   3.479   1.393
  112SL       C 1670   1.002   3.354   1.394
  112SL       C 1671   1.065   3.257   1.295
  112SL       C 1672   1.212   3.251   1.330
  112SL       H 1673   1.082   3.538   1.485
  112SL       H 1674   1.069   3.541   1.306
  112SL       H 1675   0.899   3.379   1.367
  112SL       H 1676   1.001   3.310   1.495
  112SL       H 1677   1.052   3.295   1.193
  112SL       H 1678   1.018   3.158   1.300
  112SL       H 1679   1.275   3.218   1.246
  112SL       H 1680   1.230   3.186   1.416
  113SL       O 1681   1.985   1.258   0.332
  113SL       S 1682   1.876   1.266   0.426
  113SL       O 1683   1.758   1.183   0.414
  113SL       C 1684   1.942   1.250   0.591
  113SL       C 1685   1.890   1.371   0.667
  113SL       C 1686   1.892   1.488   0.567
  113SL       C 1687   1.825   1.436   0.442
  113SL       H 1688   1.910   1.155   0.635
  113SL       H 1689   2.051   1.252   0.584
  113SL       H 1690   1.952   1.393   0.755
  113SL       H 1691   1.787   1.354   0.700
  113SL       H 1692   1.997   1.515   0.546
  113SL       H 1693   1.842   1.576   0.607
  113SL       H 1694   1.854   1.492   0.352
  113SL       H 1695   1.716   1.437   0.453
  114SL       O 1696   2.198   1.746   3.638
  114SL       S 1697   2.213   1.836   3.526
  114SL       O 1698   2.258   1.790   3.397
  114SL       C 1699   2.062   1.928   3.506
  114SL       C 1700   2.104   2.075   3.506
  114SL       C 1701   2.217   2.086   3.608
  114SL       C 1702   2.314   1.975   3.576
  114SL       H 1703   2.013   1.899   3.413
  114SL       H 1704   1.997   1.906   3.591
  114SL       H 1705   2.020   2.140   3.531
  114SL       H 1706   2.142   2.103   3.407
  114SL       H 1707   2.176   2.073   3.709
  114SL       H 1708   2.266   2.184   3.605
  114SL       H 1709   2.376   1.946   3.661
  114SL       H 1710   2.378   2.001   3.491
  115SL       O 1711   2.575   0.596   1.846
  115SL       S 1712   2.580   0.725   1.910
  115SL       O 1713   2.703   0.778   1.966
  115SL       C 1714   2.510   0.846   1.799
  115SL       C 1715   2.402   0.916   1.881
  115SL       C 1716   2.338   0.808   1.969
  115SL       C 1717   2.453   0.734   2.034
  115SL       H 1718   2.587   0.914   1.764
  115SL       H 1719   2.465   0.792   1.715
  115SL       H 1720   2.328   0.965   1.817
  115SL       H 1721   2.447   0.993   1.945
  115SL       H 1722   2.279   0.740   1.905
  115SL       H 1723   2.270   0.851   2.043
  115SL       H 1724   2.425   0.633   2.066
  115SL       H 1725   2.492   0.790   2.119
  116SL       O 1726   3.718   3.265   1.020
  116SL       S 1727   3.648   3.165   0.943
  116SL       O 1728   3.719   3.066   0.864
  116SL       C 1729   3.532   3.081   1.050
  116SL       C 1730   3.398   3.092   0.979
  116SL       C 1731   3.395   3.231   0.914
  116SL       C 1732   3.526   3.245   0.840
  116SL       H 1733   3.563   2.978   1.066
  116SL       H 1734   3.530   3.134   1.145
  116SL       H 1735   3.314   3.079   1.049
  116SL       H 1736   3.390   3.015   0.901
  116SL       H 1737   3.387   3.308   0.992
  116SL       H 1738   3.310   3.243   0.847
  116SL       H 1739   3.555   3.349   0.823
  116SL       H 1740   3.523   3.191   0.744
  117SL       O 1741   0.781   3.287   2.451
  117SL       S 1742   0.720   3.265   2.322
  117SL       O 1743   0.620   3.163   2.300
  117SL       C 1744   0.657   3.421   2.262
  117SL       C 1745   0.718   3.438   2.123
  117SL       C 1746   0.860   3.383   2.132
  117SL       C 1747   0.848   3.247   2.199
  117SL       H 1748   0.547   3.419   2.259
  117SL       H 1749   0.691   3.500   2.329
  117SL       H 1750   0.717   3.543   2.091
  117SL       H 1751   0.661   3.380   2.049
  117SL       H 1752   0.921   3.450   2.194
  117SL       H 1753   0.908   3.375   2.034
  117SL       H 1754   0.941   3.215   2.247
  117SL       H 1755   0.815   3.171   2.127
  118SL       O 1756   1.080   2.317   1.420
  118SL       S 1757   1.166   2.376   1.319
  118SL       O 1758   1.302   2.331   1.298
  118SL       C 1759   1.079   2.372   1.163
  118SL       C 1760   1.083   2.516   1.112
  118SL       C 1761   1.067   2.605   1.236
  118SL       C 1762   1.166   2.553   1.338
  118SL       H 1763   1.128   2.302   1.094
  118SL       H 1764   0.976   2.340   1.182
  118SL       H 1765   1.004   2.535   1.039
  118SL       H 1766   1.180   2.537   1.065
  118SL       H 1767   0.964   2.595   1.274
  118SL       H 1768   1.084   2.710   1.213
  118SL       H 1769   1.139   2.579   1.441
  118SL       H 1770   1.267   2.589   1.316
  119SL       O 1771   1.982   2.668   2.693
  119SL       S 1772   1.940   2.546   2.628
  119SL       O 1773   1.947   2.529   2.484
  119SL       C 1774   2.023   2.409   2.706
  119SL       C 1775   1.912   2.312   2.746
  119SL       C 1776   1.795   2.399   2.791
  119SL       C 1777   1.776   2.503   2.683
  119SL       H 1778   2.095   2.364   2.637
  119SL       H 1779   2.075   2.446   2.794
  119SL       H 1780   1.945   2.244   2.825
  119SL       H 1781   1.882   2.252   2.659
  119SL       H 1782   1.820   2.448   2.887
  119SL       H 1783   1.704   2.340   2.807
  119SL       H 1784   1.725   2.593   2.719
  119SL       H 1785   1.722   2.461   2.597
  120SL       O 1786   3.029   0.775   0.304
  120SL       S 1787   3.071   0.650   0.244
  120SL       O 1788   3.084   0.635   0.100
  120SL       C 1789   3.222   0.597   0.322
  120SL       C 1790   3.194   0.455   0.369
  120SL       C 1791   3.049   0.453   0.416
  120SL       C 1792   2.968   0.518   0.306
  120SL       H 1793   3.305   0.603   0.252
  120SL       H 1794   3.240   0.663   0.407
  120SL       H 1795   3.263   0.425   0.449
  120SL       H 1796   3.207   0.385   0.285
  120SL       H 1797   3.040   0.511   0.509
  120SL       H 1798   3.014   0.352   0.437
  120SL       H 1799   2.873   0.559   0.341
  120SL       H 1800   2.950   0.448   0.223
  121SL       O 1801   1.123   2.064   2.009
  121SL       S 1802   1.081   2.100   2.142
  121SL       O 1803   1.052   2.237   2.179
  121SL       C 1804   0.942   1.997   2.187
  121SL       C 1805   0.981   1.934   2.320
  121SL       C 1806   1.131   1.905   2.311
  121SL       C 1807   1.195   2.032   2.260
  121SL       H 1808   0.851   2.058   2.194
  121SL       H 1809   0.930   1.921   2.110
  121SL       H 1810   0.923   1.843   2.340
  121SL       H 1811   0.963   2.004   2.402
  121SL       H 1812   1.147   1.823   2.239
  121SL       H 1813   1.172   1.873   2.407
  121SL       H 1814   1.292   2.014   2.212
  121SL       H 1815   1.207   2.105   2.341
  122SL       O 1816   1.898   0.961   1.199
  122SL       S 1817   1.933   1.100   1.213
  122SL       O 1818   1.975   1.156   1.340
  122SL       C 1819   2.054   1.141   1.089
  122SL       C 1820   1.997   1.262   1.016
  122SL       C 1821   1.846   1.239   1.007
  122SL       C 1822   1.801   1.200   1.146
  122SL       H 1823   2.150   1.162   1.136
  122SL       H 1824   2.063   1.055   1.021
  122SL       H 1825   2.041   1.274   0.916
  122SL       H 1826   2.017   1.353   1.073
  122SL       H 1827   1.826   1.156   0.937
  122SL       H 1828   1.793   1.327   0.970
  122SL       H 1829   1.708   1.144   1.147
  122SL       H 1830   1.792   1.289   1.210
  123SL       O 1831   0.845   2.057   1.653
  123SL       S 1832   0.729   2.119   1.712
  123SL       O 1833   0.595   2.070   1.687
  123SL       C 1834   0.754   2.132   1.888
  123SL       C 1835   0.730   2.279   1.921
  123SL       C 1836   0.788   2.358   1.804
  123SL       C 1837   0.733   2.294   1.678
  123SL       H 1838   0.685   2.065   1.941
  123SL       H 1839   0.857   2.103   1.910
  123SL       H 1840   0.778   2.307   2.016
  123SL       H 1841   0.623   2.299   1.929
  123SL       H 1842   0.898   2.350   1.805
  123SL       H 1843   0.762   2.464   1.810
  123SL       H 1844   0.794   2.313   1.590
  123SL       H 1845   0.630   2.327   1.660
  124SL       O 1846   0.574   2.777   0.629
  124SL       S 1847   0.631   2.824   0.753
  124SL       O 1848   0.665   2.733   0.861
  124SL       C 1849   0.774   2.924   0.715
  124SL       C 1850   0.750   3.056   0.788
  124SL       C 1851   0.600   3.084   0.777
  124SL       C 1852   0.531   2.956   0.818
  124SL       H 1853   0.865   2.874   0.748
  124SL       H 1854   0.777   2.940   0.607
  124SL       H 1855   0.809   3.137   0.744
  124SL       H 1856   0.778   3.046   0.894
  124SL       H 1857   0.575   3.109   0.673
  124SL       H 1858   0.569   3.168   0.840
  124SL       H 1859   0.429   2.948   0.778
  124SL       H 1860   0.529   2.945   0.927
  125SL       O 1861   0.546   2.163   2.850
  125SL       S 1862   0.520   2.094   2.726
  125SL       O 1863   0.590   2.127   2.603
  125SL       C 1864   0.535   1.919   2.755
  125SL       C 1865   0.404   1.859   2.705
  125SL       C 1866   0.294   1.959   2.741
  125SL       C 1867   0.345   2.094   2.694
  125SL       H 1868   0.622   1.879   2.703
  125SL       H 1869   0.546   1.903   2.863
  125SL       H 1870   0.385   1.760   2.749
  125SL       H 1871   0.408   1.846   2.596
  125SL       H 1872   0.280   1.960   2.850
  125SL       H 1873   0.199   1.933   2.695
  125SL       H 1874   0.298   2.178   2.747
  125SL       H 1875   0.330   2.106   2.586
  126SL       O 1876   3.954   3.751   1.310
  126SL       S 1877   3.900   3.802   1.434
  126SL       O 1878   3.794   3.901   1.436
  126SL       C 1879   3.851   3.663   1.535
  126SL       C 1880   3.921   3.685   1.669
  126SL       C 1881   4.058   3.743   1.636
  126SL       C 1882   4.033   3.857   1.539
  126SL       H 1883   3.742   3.660   1.544
  126SL       H 1884   3.887   3.572   1.487
  126SL       H 1885   3.930   3.591   1.725
  126SL       H 1886   3.864   3.756   1.730
  126SL       H 1887   4.120   3.666   1.588
  126SL       H 1888   4.111   3.778   1.725
  126SL       H 1889   4.120   3.881   1.477
  126SL       H 1890   3.999   3.947   1.591
  127SL       O 1891   1.887   2.163   2.081
  127SL       S 1892   1.978   2.168   1.969
  127SL       O 1893   1.934   2.149   1.832
  127SL       C 1894   2.071   2.320   1.980
  127SL       C 1895   2.218   2.278   1.974
  127SL       C 1896   2.227   2.147   2.053
  127SL       C 1897   2.116   2.059   2.001
  127SL       H 1898   2.044   2.387   1.897
  127SL       H 1899   2.048   2.368   2.075
  127SL       H 1900   2.283   2.355   2.016
  127SL       H 1901   2.248   2.260   1.870
  127SL       H 1902   2.212   2.168   2.160
  127SL       H 1903   2.325   2.100   2.042
  127SL       H 1904   2.085   1.982   2.073
  127SL       H 1905   2.144   2.012   1.906
  128SL       O 1906   3.090   1.896   2.433
  128SL       S 1907   3.137   1.804   2.333
  128SL       O 1908   3.104   1.820   2.193
  128SL       C 1909   3.314   1.788   2.349
  128SL       C 1910   3.340   1.638   2.361
  128SL       C 1911   3.224   1.582   2.444
  128SL       C 1912   3.098   1.637   2.383
  128SL       H 1913   3.364   1.833   2.262
  128SL       H 1914   3.345   1.840   2.440
  128SL       H 1915   3.437   1.618   2.407
  128SL       H 1916   3.339   1.592   2.261
  128SL       H 1917   3.235   1.617   2.548
  128SL       H 1918   3.224   1.473   2.446
  128SL       H 1919   3.014   1.639   2.453
  128SL       H 1920   3.070   1.581   2.293
  129SL       O 1921   2.993   2.135   0.956
  129SL       S 1922   2.900   2.167   1.061
  129SL       O 1923   2.929   2.139   1.200
  129SL       C 1924   2.852   2.338   1.045
  129SL       C 1925   2.700   2.336   1.041
  129SL       C 1926   2.660   2.212   0.961
  129SL       C 1927   2.741   2.098   1.020
  129SL       H 1928   2.891   2.396   1.129
  129SL       H 1929   2.893   2.376   0.951
  129SL       H 1930   2.660   2.427   0.996
  129SL       H 1931   2.659   2.329   1.143
  129SL       H 1932   2.688   2.227   0.855
  129SL       H 1933   2.553   2.192   0.966
  129SL       H 1934   2.754   2.014   0.951
  129SL       H 1935   2.695   2.062   1.113
  130SL       O 1936   4.120   1.803   2.421
  130SL       S 1937   4.022   1.879   2.494
  130SL       O 1938   4.002   1.863   2.637
  130SL       C 1939   4.046   2.052   2.458
  130SL       C 1940   3.910   2.102   2.410
  130SL       C 1941   3.849   1.989   2.328
  130SL       C 1942   3.864   1.864   2.412
  130SL       H 1943   4.081   2.104   2.547
  130SL       H 1944   4.120   2.060   2.378
  130SL       H 1945   3.919   2.194   2.352
  130SL       H 1946   3.845   2.124   2.497
  130SL       H 1947   3.905   1.978   2.234
  130SL       H 1948   3.745   2.008   2.302
  130SL       H 1949   3.862   1.772   2.353
  130SL       H 1950   3.787   1.859   2.489
  131SL       O 1951   1.952   3.239   1.530
  131SL       S 1952   1.965   3.337   1.425
  131SL       O 1953   1.967   3.299   1.285
  131SL       C 1954   1.841   3.462   1.450
  131SL       C 1955   1.918   3.594   1.451
  131SL       C 1956   2.050   3.566   1.523
  131SL       C 1957   2.106   3.441   1.459
  131SL       H 1958   1.767   3.458   1.370
  131SL       H 1959   1.793   3.445   1.546
  131SL       H 1960   1.861   3.673   1.501
  131SL       H 1961   1.938   3.627   1.348
  131SL       H 1962   2.030   3.549   1.630
  131SL       H 1963   2.119   3.650   1.515
  131SL       H 1964   2.176   3.387   1.524
  131SL       H 1965   2.154   3.463   1.364
  132SL       O 1966   2.769   2.373   0.622
  132SL       S 1967   2.887   2.298   0.657
  132SL       O 1968   2.893   2.217   0.778
  132SL       C 1969   2.934   2.198   0.518
  132SL       C 1970   3.081   2.232   0.492
  132SL       C 1971   3.094   2.382   0.519
  132SL       C 1972   3.028   2.406   0.653
  132SL       H 1973   2.919   2.092   0.541
  132SL       H 1974   2.872   2.226   0.433
  132SL       H 1975   3.110   2.206   0.390
  132SL       H 1976   3.145   2.176   0.561
  132SL       H 1977   3.042   2.438   0.440
  132SL       H 1978   3.199   2.414   0.519
  132SL       H 1979   2.996   2.510   0.667
  132SL       H 1980   3.095   2.377   0.736
  133SL       O 1981   0.495   2.993   3.822
  133SL       S 1982   0.438   2.945   3.945
  133SL       O 1983   0.521   2.905   4.058
  133SL       C 1984   0.316   3.062   4.001
  133SL       C 1985   0.189   2.980   4.023
  133SL       C 1986   0.186   2.876   3.911
  133SL       C 1987   0.324   2.813   3.909
  133SL       H 1988   0.351   3.111   4.093
  133SL       H 1989   0.302   3.137   3.923
  133SL       H 1990   0.100   3.044   4.021
  133SL       H 1991   0.193   2.930   4.120
  133SL       H 1992   0.167   2.927   3.815
  133SL       H 1993   0.108   2.802   3.926
  133SL       H 1994   0.349   2.768   3.813
  133SL       H 1995   0.333   2.738   3.989
  134SL       O 1996   2.175   1.380   2.724
  134SL       S 1997   2.118   1.474   2.631
  134SL       O 1998   2.109   1.446   2.489
  134SL       C 1999   1.956   1.521   2.690
  134SL       C 2000   1.958   1.674   2.694
  134SL       C 2001   2.099   1.713   2.740
  134SL       C 2002   2.194   1.633   2.654
  134SL       H 2003   1.879   1.482   2.624
  134SL       H 2004   1.943   1.480   2.791
  134SL       H 2005   1.882   1.713   2.762
  134SL       H 2006   1.940   1.714   2.594
  134SL       H 2007   2.112   1.685   2.846
  134SL       H 2008   2.116   1.820   2.731
  134SL       H 2009   2.293   1.621   2.700
  134SL       H 2010   2.206   1.679   2.555
  135SL       O 2011   1.084   0.431   0.928
  135SL       S 2012   0.969   0.515   0.948
  135SL       O 2013   0.920   0.604   0.844
  135SL       C 2014   0.834   0.414   1.006
  135SL       C 2015   0.786   0.482   1.134
  135SL       C 2016   0.912   0.535   1.204
  135SL       C 2017   0.990   0.609   1.098
  135SL       H 2018   0.756   0.408   0.930
  135SL       H 2019   0.873   0.314   1.027
  135SL       H 2020   0.731   0.413   1.198
  135SL       H 2021   0.720   0.566   1.110
  135SL       H 2022   0.971   0.450   1.242
  135SL       H 2023   0.888   0.599   1.289
  135SL       H 2024   1.097   0.617   1.121
  135SL       H 2025   0.949   0.709   1.081
  136SL       O 2026   3.030   0.769   1.966
  136SL       S 2027   3.073   0.776   2.103
  136SL       O 2028   2.983   0.813   2.210
  136SL       C 2029   3.153   0.622   2.145
  136SL       C 2030   3.289   0.661   2.201
  136SL       C 2031   3.336   0.781   2.117
  136SL       C 2032   3.220   0.877   2.114
  136SL       H 2033   3.092   0.567   2.218
  136SL       H 2034   3.164   0.563   2.053
  136SL       H 2035   3.360   0.578   2.195
  136SL       H 2036   3.280   0.691   2.306
  136SL       H 2037   3.360   0.746   2.015
  136SL       H 2038   3.426   0.827   2.159
  136SL       H 2039   3.223   0.945   2.028
  136SL       H 2040   3.214   0.935   2.207
  137SL       O 2041   2.375   1.989   1.317
  137SL       S 2042   2.379   1.880   1.224
  137SL       O 2043   2.299   1.879   1.103
  137SL       C 2044   2.549   1.847   1.181
  137SL       C 2045   2.569   1.698   1.209
  137SL       C 2046   2.487   1.667   1.335
  137SL       C 2047   2.350   1.727   1.311
  137SL       H 2048   2.567   1.873   1.077
  137SL       H 2049   2.612   1.907   1.246
  137SL       H 2050   2.675   1.674   1.222
  137SL       H 2051   2.531   1.639   1.125
  137SL       H 2052   2.536   1.715   1.422
  137SL       H 2053   2.482   1.560   1.355
  137SL       H 2054   2.296   1.747   1.404
  137SL       H 2055   2.290   1.662   1.247
  138SL       O 2056   2.431   0.869   0.723
  138SL       S 2057   2.334   0.966   0.768
  138SL       O 2058   2.223   0.930   0.853
  138SL       C 2059   2.421   1.104   0.840
  138SL       C 2060   2.369   1.227   0.766
  138SL       C 2061   2.349   1.184   0.621
  138SL       C 2062   2.271   1.054   0.626
  138SL       H 2063   2.402   1.108   0.948
  138SL       H 2064   2.528   1.090   0.822
  138SL       H 2065   2.438   1.311   0.775
  138SL       H 2066   2.273   1.258   0.809
  138SL       H 2067   2.447   1.168   0.574
  138SL       H 2068   2.297   1.260   0.563
  138SL       H 2069   2.284   0.993   0.536
  138SL       H 2070   2.165   1.073   0.643
  139SL       O 2071   2.838   4.100   1.302
  139SL       S 2072   2.884   3.996   1.212
  139SL       O 2073   2.831   3.981   1.078
  139SL       C 2074   3.062   4.002   1.204
  139SL       C 2075   3.108   3.861   1.237
  139SL       C 2076   3.013   3.810   1.345
  139SL       C 2077   2.873   3.838   1.295
  139SL       H 2078   3.093   4.035   1.104
  139SL       H 2079   3.097   4.074   1.279
  139SL       H 2080   3.212   3.860   1.271
  139SL       H 2081   3.101   3.797   1.148
  139SL       H 2082   3.032   3.864   1.439
  139SL       H 2083   3.028   3.703   1.366
  139SL       H 2084   2.800   3.844   1.376
  139SL       H 2085   2.842   3.764   1.222
  140SL       O 2086   2.898   2.641   1.205
  140SL       S 2087   2.996   2.685   1.301
  140SL       O 2088   2.964   2.700   1.442
  140SL       C 2089   3.141   2.584   1.285
  140SL       C 2090   3.256   2.682   1.266
  140SL       C 2091   3.201   2.795   1.179
  140SL       C 2092   3.070   2.836   1.243
  140SL       H 2093   3.154   2.522   1.374
  140SL       H 2094   3.129   2.520   1.197
  140SL       H 2095   3.343   2.634   1.219
  140SL       H 2096   3.288   2.722   1.363
  140SL       H 2097   3.184   2.758   1.077
  140SL       H 2098   3.271   2.879   1.172
  140SL       H 2099   3.003   2.886   1.173
  140SL       H 2100   3.087   2.901   1.330
  141SL       O 2101   1.383   1.083   2.951
  141SL       S 2102   1.286   0.981   2.981
  141SL       O 2103   1.183   1.000   3.081
  141SL       C 2104   1.210   0.927   2.829
  141SL       C 2105   1.228   0.775   2.827
  141SL       C 2106   1.366   0.748   2.888
  141SL       C 2107   1.372   0.828   3.016
  141SL       H 2108   1.105   0.957   2.827
  141SL       H 2109   1.264   0.973   2.746
  141SL       H 2110   1.220   0.735   2.726
  141SL       H 2111   1.151   0.728   2.889
  141SL       H 2112   1.444   0.783   2.817
  141SL       H 2113   1.382   0.642   2.906
  141SL       H 2114   1.474   0.850   3.048
  141SL       H 2115   1.318   0.777   3.096
  142SL       O 2116   2.991   3.874   1.828
  142SL       S 2117   2.875   3.889   1.743
  142SL       O 2118   2.880   3.859   1.601
  142SL       C 2119   2.739   3.801   1.816
  142SL       C 2120   2.626   3.903   1.825
  142SL       C 2121   2.692   4.037   1.861
  142SL       C 2122   2.807   4.053   1.764
  142SL       H 2123   2.712   3.715   1.755
  142SL       H 2124   2.769   3.768   1.916
  142SL       H 2125   2.551   3.874   1.900
  142SL       H 2126   2.575   3.912   1.728
  142SL       H 2127   2.729   4.032   1.964
  142SL       H 2128   2.622   4.120   1.854
  142SL       H 2129   2.885   4.120   1.802
  142SL       H 2130   2.773   4.087   1.667
  143SL       O 2131   0.516   2.200   3.682
  143SL       S 2132   0.442   2.154   3.567
  143SL       O 2133   0.478   2.192   3.432
  143SL       C 2134   0.428   1.976   3.576
  143SL       C 2135   0.279   1.947   3.564
  143SL       C 2136   0.208   2.058   3.641
  143SL       C 2137   0.269   2.188   3.593
  143SL       H 2138   0.487   1.930   3.496
  143SL       H 2139   0.467   1.944   3.673
  143SL       H 2140   0.254   1.848   3.604
  143SL       H 2141   0.248   1.950   3.459
  143SL       H 2142   0.227   2.046   3.749
  143SL       H 2143   0.100   2.056   3.626
  143SL       H 2144   0.257   2.270   3.664
  143SL       H 2145   0.226   2.217   3.496
  144SL       O 2146   1.811   0.369   2.923
  144SL       S 2147   1.901   0.256   2.922
  144SL       O 2148   1.854   0.120   2.941
  144SL       C 2149   1.998   0.262   2.772
  144SL       C 2150   2.143   0.255   2.819
  144SL       C 2151   2.150   0.336   2.948
  144SL       C 2152   2.035   0.287   3.034
  144SL       H 2153   1.971   0.179   2.706
  144SL       H 2154   1.978   0.357   2.722
  144SL       H 2155   2.211   0.294   2.743
  144SL       H 2156   2.171   0.151   2.839
  144SL       H 2157   2.137   0.443   2.925
  144SL       H 2158   2.246   0.325   2.999
  144SL       H 2159   2.004   0.360   3.109
  144SL       H 2160   2.060   0.193   3.083
  145SL       O 2161   2.931   3.546   2.897
  145SL       S 2162   2.844   3.598   3.000
  145SL       O 2163   2.884   3.602   3.139
  145SL       C 2164   2.788   3.759   2.950
  145SL       C 2165   2.635   3.753   2.959
  145SL       C 2166   2.596   3.613   2.912
  145SL       C 2167   2.686   3.517   2.988
  145SL       H 2168   2.830   3.836   3.016
  145SL       H 2169   2.820   3.777   2.848
  145SL       H 2170   2.588   3.830   2.897
  145SL       H 2171   2.603   3.767   3.062
  145SL       H 2172   2.615   3.604   2.803
  145SL       H 2173   2.491   3.592   2.929
  145SL       H 2174   2.697   3.420   2.937
  145SL       H 2175   2.648   3.501   3.090
  146SL       O 2176   1.361   1.780   2.206
  146SL       S 2177   1.407   1.718   2.328
  146SL       O 2178   1.340   1.739   2.455
  146SL       C 2179   1.425   1.543   2.300
  146SL       C 2180   1.568   1.511   2.343
  146SL       C 2181   1.653   1.630   2.299
  146SL       C 2182   1.581   1.753   2.348
  146SL       H 2183   1.351   1.488   2.359
  146SL       H 2184   1.411   1.524   2.194
  146SL       H 2185   1.603   1.417   2.297
  146SL       H 2186   1.573   1.500   2.452
  146SL       H 2187   1.660   1.631   2.189
  146SL       H 2188   1.755   1.624   2.338
  146SL       H 2189   1.607   1.843   2.292
  146SL       H 2190   1.599   1.769   2.455
  147SL       O 2191   3.228   1.833   3.216
  147SL       S 2192   3.345   1.874   3.290
  147SL       O 2193   3.465   1.920   3.224
  147SL       C 2194   3.295   1.995   3.411
  147SL       C 2195   3.348   1.943   3.544
  147SL       C 2196   3.330   1.791   3.539
  147SL       C 2197   3.388   1.747   3.407
  147SL       H 2198   3.336   2.093   3.385
  147SL       H 2199   3.186   2.000   3.411
  147SL       H 2200   3.294   1.987   3.629
  147SL       H 2201   3.454   1.967   3.555
  147SL       H 2202   3.223   1.766   3.544
  147SL       H 2203   3.379   1.741   3.623
  147SL       H 2204   3.349   1.650   3.372
  147SL       H 2205   3.498   1.742   3.411
  148SL       O 2206   3.764   1.215   2.421
  148SL       S 2207   3.782   1.078   2.380
  148SL       O 2208   3.675   0.980   2.389
  148SL       C 2209   3.848   1.076   2.215
  148SL       C 2210   3.974   0.989   2.223
  148SL       C 2211   4.038   1.021   2.358
  148SL       C 2212   3.927   1.011   2.461
  148SL       H 2213   3.774   1.036   2.145
  148SL       H 2214   3.874   1.178   2.187
  148SL       H 2215   4.042   1.009   2.140
  148SL       H 2216   3.946   0.883   2.219
  148SL       H 2217   4.079   1.123   2.356
  148SL       H 2218   4.120   0.952   2.381
  148SL       H 2219   3.948   1.068   2.552
  148SL       H 2220   3.906   0.907   2.486
  149SL       O 2221   2.077   4.097   1.272
  149SL       S 2222   2.146   3.973   1.298
  149SL       O 2223   2.136   3.905   1.426
  149SL       C 2224   2.109   3.858   1.167
  149SL       C 2225   2.244   3.811   1.115
  149SL       C 2226   2.336   3.933   1.120
  149SL       C 2227   2.319   3.993   1.258
  149SL       H 2228   2.048   3.776   1.206
  149SL       H 2229   2.054   3.912   1.090
  149SL       H 2230   2.236   3.771   1.014
  149SL       H 2231   2.284   3.733   1.180
  149SL       H 2232   2.304   4.006   1.043
  149SL       H 2233   2.440   3.907   1.099
  149SL       H 2234   2.346   4.099   1.262
  149SL       H 2235   2.377   3.937   1.332
  150SL       O 2236   2.284   0.513   2.329
  150SL       S 2237   2.251   0.384   2.273
  150SL       O 2238   2.117   0.351   2.229
  150SL       C 2239   2.366   0.348   2.142
  150SL       C 2240   2.425   0.212   2.176
  150SL       C 2241   2.440   0.209   2.328
  150SL       C 2242   2.308   0.256   2.384
  150SL       H 2243   2.314   0.349   2.045
  150SL       H 2244   2.444   0.425   2.142
  150SL       H 2245   2.520   0.195   2.125
  150SL       H 2246   2.356   0.132   2.144
  150SL       H 2247   2.521   0.278   2.357
  150SL       H 2248   2.467   0.110   2.364
  150SL       H 2249   2.317   0.297   2.485
  150SL       H 2250   2.234   0.176   2.383
  151SL       O 2251   0.253   2.673   0.100
  151SL       S 2252   0.228   2.565   0.192
  151SL       O 2253   0.098   2.501   0.201
  151SL       C 2254   0.353   2.440   0.166
  151SL       C 2255   0.413   2.415   0.305
  151SL       C 2256   0.418   2.552   0.373
  151SL       C 2257   0.281   2.613   0.355
  151SL       H 2258   0.307   2.350   0.124
  151SL       H 2259   0.428   2.480   0.098
  151SL       H 2260   0.512   2.370   0.297
  151SL       H 2261   0.349   2.348   0.362
  151SL       H 2262   0.494   2.614   0.324
  151SL       H 2263   0.445   2.544   0.479
  151SL       H 2264   0.281   2.722   0.362
  151SL       H 2265   0.209   2.572   0.427
  152SL       O 2266   2.841   3.145   2.495
  152SL       S 2267   2.846   3.071   2.371
  152SL       O 2268   2.928   3.113   2.259
  152SL       C 2269   2.883   2.901   2.409
  152SL       C 2270   2.773   2.820   2.342
  152SL       C 2271   2.645   2.902   2.357
  152SL       C 2272   2.680   3.042   2.313
  152SL       H 2273   2.983   2.875   2.373
  152SL       H 2274   2.879   2.888   2.518
  152SL       H 2275   2.763   2.720   2.387
  152SL       H 2276   2.796   2.807   2.235
  152SL       H 2277   2.614   2.902   2.463
  152SL       H 2278   2.563   2.861   2.298
  152SL       H 2279   2.613   3.118   2.355
  152SL       H 2280   2.681   3.050   2.204
  153SL       O 2281   2.823   2.440   0.420
  153SL       S 2282   2.798   2.392   0.286
  153SL       O 2283   2.906   2.361   0.194
  153SL       C 2284   2.690   2.251   0.297
  153SL       C 2285   2.574   2.283   0.203
  153SL       C 2286   2.547   2.433   0.218
  153SL       C 2287   2.682   2.500   0.205
  153SL       H 2288   2.743   2.160   0.267
  153SL       H 2289   2.655   2.242   0.400
  153SL       H 2290   2.485   2.224   0.228
  153SL       H 2291   2.601   2.261   0.099
  153SL       H 2292   2.505   2.452   0.318
  153SL       H 2293   2.476   2.470   0.144
  153SL       H 2294   2.685   2.599   0.252
  153SL       H 2295   2.712   2.508   0.100
  154SL       O 2296   1.382   0.460   0.852
  154SL       S 2297   1.452   0.420   0.972
  154SL       O 2298   1.596   0.412   0.978
  154SL       C 2299   1.393   0.520   1.107
  154SL       C 2300   1.349   0.420   1.214
  154SL       C 2301   1.286   0.303   1.139
  154SL       C 2302   1.384   0.266   1.030
  154SL       H 2303   1.472   0.587   1.142
  154SL       H 2304   1.308   0.579   1.071
  154SL       H 2305   1.279   0.466   1.285
  154SL       H 2306   1.436   0.385   1.271
  154SL       H 2307   1.190   0.335   1.095
  154SL       H 2308   1.265   0.219   1.205
  154SL       H 2309   1.336   0.213   0.946
  154SL       H 2310   1.466   0.206   1.070
  155SL       O 2311   2.681   2.143   1.556
  155SL       S 2312   2.743   2.209   1.444
  155SL       O 2313   2.739   2.154   1.310
  155SL       C 2314   2.685   2.378   1.438
  155SL       C 2315   2.812   2.463   1.435
  155SL       C 2316   2.912   2.393   1.527
  155SL       C 2317   2.912   2.247   1.484
  155SL       H 2318   2.622   2.393   1.350
  155SL       H 2319   2.628   2.397   1.529
  155SL       H 2320   2.792   2.566   1.468
  155SL       H 2321   2.852   2.468   1.333
  155SL       H 2322   2.879   2.402   1.631
  155SL       H 2323   3.012   2.437   1.519
  155SL       H 2324   2.947   2.180   1.563
  155SL       H 2325   2.973   2.233   1.394
  156SL       O 2326   2.134   2.078   2.712
  156SL       S 2327   2.276   2.052   2.705
  156SL       O 2328   2.356   2.028   2.824
  156SL       C 2329   2.304   1.920   2.589
  156SL       C 2330   2.407   1.975   2.490
  156SL       C 2331   2.372   2.123   2.470
  156SL       C 2332   2.355   2.181   2.609
  156SL       H 2333   2.340   1.831   2.641
  156SL       H 2334   2.210   1.899   2.538
  156SL       H 2335   2.405   1.920   2.396
  156SL       H 2336   2.508   1.967   2.532
  156SL       H 2337   2.277   2.130   2.414
  156SL       H 2338   2.449   2.176   2.414
  156SL       H 2339   2.292   2.271   2.610
  156SL       H 2340   2.452   2.202   2.655
  157SL       O 2341   0.438   2.724   3.179
  157SL       S 2342   0.533   2.615   3.169
  157SL       O 2343   0.497   2.489   3.107
  157SL       C 2344   0.682   2.677   3.094
  157SL       C 2345   0.794   2.637   3.191
  157SL       C 2346   0.736   2.654   3.332
  157SL       C 2347   0.602   2.583   3.330
  157SL       H 2348   0.696   2.633   2.995
  157SL       H 2349   0.675   2.786   3.087
  157SL       H 2350   0.883   2.699   3.177
  157SL       H 2351   0.822   2.533   3.175
  157SL       H 2352   0.722   2.761   3.353
  157SL       H 2353   0.802   2.613   3.408
  157SL       H 2354   0.534   2.619   3.407
  157SL       H 2355   0.615   2.475   3.340
  158SL       O 2356   2.906   3.272   1.677
  158SL       S 2357   2.822   3.306   1.564
  158SL       O 2358   2.878   3.348   1.437
  158SL       C 2359   2.708   3.171   1.537
  158SL       C 2360   2.570   3.236   1.536
  158SL       C 2361   2.574   3.346   1.643
  158SL       C 2362   2.700   3.425   1.616
  158SL       H 2363   2.731   3.121   1.442
  158SL       H 2364   2.718   3.101   1.620
  158SL       H 2365   2.492   3.163   1.557
  158SL       H 2366   2.550   3.281   1.438
  158SL       H 2367   2.579   3.299   1.743
  158SL       H 2368   2.485   3.409   1.640
  158SL       H 2369   2.736   3.479   1.704
  158SL       H 2370   2.685   3.495   1.533
  159SL       O 2371   2.879   0.807   2.404
  159SL       S 2372   2.937   0.907   2.490
  159SL       O 2373   2.902   1.047   2.478
  159SL       C 2374   2.916   0.856   2.659
  159SL       C 2375   3.056   0.861   2.720
  159SL       C 2376   3.151   0.813   2.610
  159SL       C 2377   3.115   0.891   2.486
  159SL       H 2378   2.846   0.923   2.710
  159SL       H 2379   2.877   0.754   2.660
  159SL       H 2380   3.063   0.799   2.810
  159SL       H 2381   3.081   0.964   2.748
  159SL       H 2382   3.136   0.705   2.593
  159SL       H 2383   3.256   0.827   2.638
  159SL       H 2384   3.145   0.841   2.394
  159SL       H 2385   3.157   0.992   2.489
  160SL       O 2386   3.596   3.190   3.569
  160SL       S 2387   3.634   3.215   3.432
  160SL       O 2388   3.576   3.140   3.322
  160SL       C 2389   3.615   3.389   3.400
  160SL       C 2390   3.750   3.434   3.344
  160SL       C 2391   3.856   3.356   3.421
  160SL       C 2392   3.811   3.211   3.418
  160SL       H 2393   3.533   3.406   3.329
  160SL       H 2394   3.593   3.439   3.494
  160SL       H 2395   3.763   3.542   3.355
  160SL       H 2396   3.756   3.409   3.237
  160SL       H 2397   3.859   3.392   3.525
  160SL       H 2398   3.955   3.368   3.379
  160SL       H 2399   3.853   3.152   3.500
  160SL       H 2400   3.836   3.164   3.322
  161SL       O 2401   3.526   3.480   2.140
  161SL       S 2402   3.557   3.613   2.092
  161SL       O 2403   3.496   3.731   2.149
  161SL       C 2404   3.734   3.633   2.092
  161SL       C 2405   3.769   3.678   1.950
  161SL       C 2406   3.676   3.601   1.857
  161SL       C 2407   3.537   3.617   1.915
  161SL       H 2408   3.764   3.707   2.168
  161SL       H 2409   3.780   3.536   2.115
  161SL       H 2410   3.874   3.658   1.927
  161SL       H 2411   3.751   3.786   1.939
  161SL       H 2412   3.704   3.494   1.857
  161SL       H 2413   3.681   3.637   1.755
  161SL       H 2414   3.468   3.538   1.884
  161SL       H 2415   3.495   3.715   1.889
  162SL       O 2416   2.576   1.924   3.547
  162SL       S 2417   2.670   2.032   3.531
  162SL       O 2418   2.785   2.048   3.617
  162SL       C 2419   2.724   2.036   3.361
  162SL       C 2420   2.697   2.178   3.314
  162SL       C 2421   2.566   2.221   3.380
  162SL       C 2422   2.580   2.186   3.526
  162SL       H 2423   2.829   2.008   3.354
  162SL       H 2424   2.663   1.964   3.304
  162SL       H 2425   2.691   2.184   3.204
  162SL       H 2426   2.778   2.245   3.346
  162SL       H 2427   2.483   2.165   3.335
  162SL       H 2428   2.546   2.328   3.365
  162SL       H 2429   2.484   2.174   3.577
  162SL       H 2430   2.640   2.261   3.579
  163SL       O 2431   2.574   2.053   2.812
  163SL       S 2432   2.603   2.112   2.941
  163SL       O 2433   2.733   2.097   3.004
  163SL       C 2434   2.561   2.285   2.935
  163SL       C 2435   2.468   2.307   3.054
  163SL       C 2436   2.382   2.181   3.064
  163SL       C 2437   2.477   2.064   3.057
  163SL       H 2438   2.652   2.346   2.941
  163SL       H 2439   2.509   2.304   2.841
  163SL       H 2440   2.407   2.397   3.041
  163SL       H 2441   2.527   2.318   3.146
  163SL       H 2442   2.312   2.178   2.979
  163SL       H 2443   2.322   2.180   3.155
  163SL       H 2444   2.429   1.972   3.024
  163SL       H 2445   2.526   2.047   3.154
  164SL       O 2446   2.011   0.784   3.841
  164SL       S 2447   2.066   0.864   3.733
  164SL       O 2448   1.985   0.907   3.621
  164SL       C 2449   2.147   1.006   3.804
  164SL       C 2450   2.288   1.004   3.746
  164SL       C 2451   2.329   0.857   3.738
  164SL       C 2452   2.214   0.785   3.671
  164SL       H 2453   2.092   1.097   3.779
  164SL       H 2454   2.150   0.993   3.913
  164SL       H 2455   2.358   1.062   3.808
  164SL       H 2456   2.288   1.048   3.645
  164SL       H 2457   2.344   0.818   3.840
  164SL       H 2458   2.422   0.843   3.683
  164SL       H 2459   2.211   0.678   3.694
  164SL       H 2460   2.216   0.799   3.563
  165SL       O 2461   3.171   0.769   1.201
  165SL       S 2462   3.250   0.701   1.100
  165SL       O 2463   3.199   0.679   0.966
  165SL       C 2464   3.409   0.781   1.089
  165SL       C 2465   3.510   0.668   1.107
  165SL       C 2466   3.451   0.573   1.210
  165SL       C 2467   3.309   0.546   1.166
  165SL       H 2468   3.419   0.832   0.993
  165SL       H 2469   3.416   0.853   1.171
  165SL       H 2470   3.608   0.707   1.139
  165SL       H 2471   3.525   0.615   1.012
  165SL       H 2472   3.451   0.621   1.309
  165SL       H 2473   3.508   0.480   1.219
  165SL       H 2474   3.244   0.514   1.248
  165SL       H 2475   3.306   0.472   1.085
  166SL       O 2476   2.295   3.079   1.148
  166SL       S 2477   2.193   3.062   1.250
  166SL       O 2478   2.056   3.103   1.229
  166SL       C 2479   2.196   2.892   1.304
  166SL       C 2480   2.210   2.899   1.456
  166SL       C 2481   2.305   3.017   1.484
  166SL       C 2482   2.252   3.133   1.403
  166SL       H 2483   2.104   2.842   1.273
  166SL       H 2484   2.282   2.843   1.259
  166SL       H 2485   2.249   2.806   1.497
  166SL       H 2486   2.113   2.919   1.502
  166SL       H 2487   2.406   2.990   1.451
  166SL       H 2488   2.309   3.041   1.590
  166SL       H 2489   2.328   3.208   1.381
  166SL       H 2490   2.166   3.180   1.452
  167SL       O 2491   0.476   3.491   2.002
  167SL       S 2492   0.455   3.633   1.988
  167SL       O 2493   0.516   3.710   1.881
  167SL       C 2494   0.280   3.665   1.990
  167SL       C 2495   0.260   3.769   2.100
  167SL       C 2496   0.358   3.733   2.211
  167SL       C 2497   0.492   3.712   2.144
  167SL       H 2498   0.247   3.700   1.892
  167SL       H 2499   0.228   3.572   2.016
  167SL       H 2500   0.157   3.770   2.136
  167SL       H 2501   0.283   3.869   2.061
  167SL       H 2502   0.325   3.640   2.260
  167SL       H 2503   0.363   3.811   2.288
  167SL       H 2504   0.560   3.649   2.202
  167SL       H 2505   0.540   3.808   2.122
  168SL       O 2506   0.303   3.062   2.368
  168SL       S 2507   0.347   3.199   2.349
  168SL       O 2508   0.460   3.254   2.421
  168SL       C 2509   0.371   3.226   2.174
  168SL       C 2510   0.287   3.350   2.142
  168SL       C 2511   0.161   3.340   2.228
  168SL       C 2512   0.208   3.308   2.368
  168SL       H 2513   0.477   3.240   2.152
  168SL       H 2514   0.333   3.139   2.121
  168SL       H 2515   0.264   3.356   2.036
  168SL       H 2516   0.343   3.441   2.170
  168SL       H 2517   0.098   3.257   2.189
  168SL       H 2518   0.102   3.431   2.224
  168SL       H 2519   0.131   3.260   2.429
  168SL       H 2520   0.243   3.399   2.418
  169SL       O 2521   4.086   0.774   2.760
  169SL       S 2522   3.968   0.702   2.801
  169SL       O 2523   3.866   0.762   2.885
  169SL       C 2524   3.890   0.633   2.657
  169SL       C 2525   3.875   0.484   2.687
  169SL       C 2526   4.000   0.444   2.764
  169SL       C 2527   4.017   0.547   2.873
  169SL       H 2528   3.794   0.682   2.639
  169SL       H 2529   3.956   0.649   2.571
  169SL       H 2530   3.863   0.426   2.595
  169SL       H 2531   3.786   0.467   2.749
  169SL       H 2532   4.087   0.446   2.696
  169SL       H 2533   3.993   0.342   2.804
  169SL       H 2534   4.120   0.554   2.910
  169SL       H 2535   3.950   0.526   2.957
  170SL       O 2536   2.853   3.554   3.522
  170SL       S 2537   2.740   3.554   3.432
  170SL       O 2538   2.716   3.444   3.340
  170SL       C 2539   2.592   3.584   3.526
  170SL       C 2540   2.524   3.702   3.456
  170SL       C 2541   2.637   3.795   3.411
  170SL       C 2542   2.738   3.707   3.340
  170SL       H 2543   2.529   3.495   3.528
  170SL       H 2544   2.621   3.611   3.628
  170SL       H 2545   2.454   3.754   3.523
  170SL       H 2546   2.468   3.667   3.369
  170SL       H 2547   2.683   3.842   3.500
  170SL       H 2548   2.601   3.875   3.346
  170SL       H 2549   2.838   3.750   3.338
  170SL       H 2550   2.705   3.684   3.238
  171SL       O 2551   1.524   2.073   1.080
  171SL       S 2552   1.651   2.102   1.019
  171SL       O 2553   1.711   2.013   0.921
  171SL       C 2554   1.645   2.267   0.952
  171SL       C 2555   1.766   2.339   1.011
  171SL       C 2556   1.779   2.287   1.155
  171SL       C 2557   1.771   2.136   1.146
  171SL       H 2558   1.648   2.263   0.842
  171SL       H 2559   1.552   2.314   0.985
  171SL       H 2560   1.754   2.447   1.008
  171SL       H 2561   1.856   2.313   0.955
  171SL       H 2562   1.695   2.326   1.215
  171SL       H 2563   1.872   2.320   1.201
  171SL       H 2564   1.740   2.090   1.240
  171SL       H 2565   1.867   2.094   1.114
  172SL       O 2566   3.324   4.120   0.612
  172SL       S 2567   3.323   4.036   0.730
  172SL       O 2568   3.294   4.089   0.862
  172SL       C 2569   3.217   3.896   0.699
  172SL       C 2570   3.303   3.774   0.730
  172SL       C 2571   3.444   3.808   0.681
  172SL       C 2572   3.476   3.945   0.738
  172SL       H 2573   3.128   3.902   0.762
  172SL       H 2574   3.188   3.898   0.594
  172SL       H 2575   3.264   3.684   0.681
  172SL       H 2576   3.305   3.756   0.838
  172SL       H 2577   3.445   3.811   0.571
  172SL       H 2578   3.517   3.733   0.713
  172SL       H 2579   3.553   3.998   0.681
  172SL       H 2580   3.505   3.938   0.843
  173SL       O 2581   0.972   3.363   0.937
  173SL       S 2582   1.037   3.488   0.905
  173SL       O 2583   0.964   3.613   0.899
  173SL       C 2584   1.178   3.508   1.012
  173SL       C 2585   1.296   3.533   0.919
  173SL       C 2586   1.273   3.444   0.797
  173SL       C 2587   1.130   3.468   0.754
  173SL       H 2588   1.161   3.590   1.082
  173SL       H 2589   1.192   3.415   1.068
  173SL       H 2590   1.391   3.510   0.968
  173SL       H 2591   1.298   3.638   0.888
  173SL       H 2592   1.286   3.338   0.825
  173SL       H 2593   1.343   3.466   0.716
  173SL       H 2594   1.088   3.386   0.696
  173SL       H 2595   1.121   3.562   0.697
  174SL       O 2596   1.030   0.498   1.919
  174SL       S 2597   1.095   0.529   1.794
  174SL       O 2598   1.229   0.583   1.789
  174SL       C 2599   1.087   0.386   1.688
  174SL       C 2600   1.025   0.436   1.558
  174SL       C 2601   0.920   0.539   1.598
  174SL       C 2602   0.988   0.632   1.696
  174SL       H 2603   1.187   0.343   1.674
  174SL       H 2604   1.022   0.312   1.736
  174SL       H 2605   0.981   0.354   1.500
  174SL       H 2606   1.102   0.484   1.496
  174SL       H 2607   0.835   0.488   1.647
  174SL       H 2608   0.881   0.593   1.512
  174SL       H 2609   0.917   0.685   1.761
  174SL       H 2610   1.051   0.705   1.644
  175SL       O 2611   3.706   1.795   1.616
  175SL       S 2612   3.778   1.737   1.727
  175SL       O 2613   3.759   1.782   1.863
  175SL       C 2614   3.759   1.560   1.721
  175SL       C 2615   3.901   1.505   1.724
  175SL       C 2616   3.986   1.601   1.640
  175SL       C 2617   3.953   1.740   1.690
  175SL       H 2618   3.699   1.526   1.806
  175SL       H 2619   3.709   1.534   1.627
  175SL       H 2620   3.905   1.402   1.685
  175SL       H 2621   3.939   1.502   1.827
  175SL       H 2622   3.958   1.591   1.534
  175SL       H 2623   4.092   1.579   1.649
  175SL       H 2624   3.974   1.817   1.617
  175SL       H 2625   4.006   1.761   1.783
  176SL       O 2626   1.973   1.388   3.673
  176SL       S 2627   1.911   1.514   3.706
  176SL       O 2628   1.966   1.602   3.807
  176SL       C 2629   1.886   1.606   3.556
  176SL       C 2630   1.738   1.643   3.556
  176SL       C 2631   1.664   1.523   3.614
  176SL       C 2632   1.738   1.487   3.741
  176SL       H 2633   1.951   1.694   3.554
  176SL       H 2634   1.910   1.541   3.471
  176SL       H 2635   1.702   1.667   3.455
  176SL       H 2636   1.721   1.731   3.619
  176SL       H 2637   1.669   1.439   3.543
  176SL       H 2638   1.559   1.545   3.634
  176SL       H 2639   1.723   1.383   3.772
  176SL       H 2640   1.710   1.554   3.823
  177SL       O 2641   3.477   1.793   2.781
  177SL       S 2642   3.578   1.735   2.695
  177SL       O 2643   3.586   1.766   2.553
  177SL       C 2644   3.738   1.763   2.769
  177SL       C 2645   3.803   1.626   2.777
  177SL       C 2646   3.691   1.528   2.811
  177SL       C 2647   3.578   1.558   2.715
  177SL       H 2648   3.796   1.834   2.708
  177SL       H 2649   3.723   1.805   2.869
  177SL       H 2650   3.883   1.623   2.851
  177SL       H 2651   3.847   1.599   2.680
  177SL       H 2652   3.658   1.545   2.915
  177SL       H 2653   3.723   1.424   2.804
  177SL       H 2654   3.480   1.525   2.752
  177SL       H 2655   3.597   1.513   2.617
  178SL       O 2656   0.919   3.852   1.511
  178SL       S 2657   0.855   3.884   1.385
  178SL       O 2658   0.814   4.019   1.352
  178SL       C 2659   0.956   3.819   1.253
  178SL       C 2660   0.861   3.734   1.169
  178SL       C 2661   0.767   3.665   1.268
  178SL       C 2662   0.717   3.774   1.361
  178SL       H 2663   0.999   3.902   1.195
  178SL       H 2664   1.035   3.758   1.296
  178SL       H 2665   0.916   3.661   1.108
  178SL       H 2666   0.802   3.798   1.101
  178SL       H 2667   0.824   3.590   1.326
  178SL       H 2668   0.685   3.614   1.218
  178SL       H 2669   0.683   3.736   1.457
  178SL       H 2670   0.637   3.832   1.313
  179SL       O 2671   3.750   1.021   2.949
  179SL       S 2672   3.729   1.150   2.888
  179SL       O 2673   3.837   1.245   2.871
  179SL       C 2674   3.647   1.127   2.732
  179SL       C 2675   3.523   1.217   2.738
  179SL       C 2676   3.472   1.209   2.882
  179SL       C 2677   3.593   1.232   2.971
  179SL       H 2678   3.714   1.154   2.650
  179SL       H 2679   3.618   1.022   2.724
  179SL       H 2680   3.447   1.185   2.667
  179SL       H 2681   3.551   1.320   2.715
  179SL       H 2682   3.431   1.108   2.901
  179SL       H 2683   3.394   1.282   2.902
  179SL       H 2684   3.581   1.190   3.071
  179SL       H 2685   3.617   1.338   2.977
  180SL       O 2686   2.995   0.872   1.282
  180SL       S 2687   2.990   0.780   1.394
  180SL       O 2688   3.098   0.687   1.420
  180SL       C 2689   2.957   0.874   1.542
  180SL       C 2690   2.836   0.805   1.605
  180SL       C 2691   2.746   0.762   1.489
  180SL       C 2692   2.836   0.691   1.391
  180SL       H 2693   3.044   0.873   1.607
  180SL       H 2694   2.933   0.976   1.513
  180SL       H 2695   2.783   0.872   1.674
  180SL       H 2696   2.868   0.717   1.661
  180SL       H 2697   2.702   0.852   1.442
  180SL       H 2698   2.664   0.699   1.522
  180SL       H 2699   2.796   0.691   1.289
  180SL       H 2700   2.856   0.589   1.423
  181SL       O 2701   0.765   3.178   1.090
  181SL       S 2702   0.760   3.113   1.218
  181SL       O 2703   0.780   3.185   1.342
  181SL       C 2704   0.607   3.021   1.229
  181SL       C 2705   0.649   2.879   1.265
  181SL       C 2706   0.780   2.852   1.190
  181SL       C 2707   0.868   2.971   1.216
  181SL       H 2708   0.541   3.066   1.303
  181SL       H 2709   0.559   3.023   1.131
  181SL       H 2710   0.572   2.806   1.239
  181SL       H 2711   0.668   2.871   1.373
  181SL       H 2712   0.758   2.844   1.082
  181SL       H 2713   0.827   2.759   1.221
  181SL       H 2714   0.945   2.985   1.139
  181SL       H 2715   0.916   2.964   1.315
  182SL       O 2716   0.958   2.895   1.808
  182SL       S 2717   0.945   2.833   1.938
  182SL       O 2718   0.830   2.857   2.023
  182SL       C 2719   0.967   2.657   1.918
  182SL       C 2720   1.076   2.620   2.018
  182SL       C 2721   1.176   2.735   2.017
  182SL       C 2722   1.094   2.861   2.032
  182SL       H 2723   0.872   2.605   1.938
  182SL       H 2724   0.999   2.638   1.816
  182SL       H 2725   1.124   2.525   1.991
  182SL       H 2726   1.033   2.609   2.119
  182SL       H 2727   1.230   2.736   1.921
  182SL       H 2728   1.250   2.726   2.097
  182SL       H 2729   1.145   2.950   1.994
  182SL       H 2730   1.064   2.877   2.136
  183SL       O 2731   0.455   2.441   1.921
  183SL       S 2732   0.353   2.429   1.821
  183SL       O 2733   0.319   2.538   1.731
  183SL       C 2734   0.386   2.283   1.724
  183SL       C 2735   0.256   2.202   1.729
  183SL       C 2736   0.201   2.220   1.870
  183SL       C 2737   0.203   2.369   1.897
  183SL       H 2738   0.414   2.311   1.622
  183SL       H 2739   0.468   2.228   1.772
  183SL       H 2740   0.274   2.096   1.706
  183SL       H 2741   0.185   2.241   1.656
  183SL       H 2742   0.265   2.167   1.942
  183SL       H 2743   0.100   2.179   1.880
  183SL       H 2744   0.205   2.393   2.004
  183SL       H 2745   0.119   2.419   1.849
  184SL       O 2746   0.468   3.630   3.183
  184SL       S 2747   0.396   3.716   3.092
  184SL       O 2748   0.392   3.691   2.949
  184SL       C 2749   0.229   3.735   3.152
  184SL       C 2750   0.207   3.886   3.160
  184SL       C 2751   0.339   3.946   3.207
  184SL       C 2752   0.446   3.885   3.118
  184SL       H 2753   0.159   3.686   3.084
  184SL       H 2754   0.224   3.690   3.251
  184SL       H 2755   0.125   3.911   3.228
  184SL       H 2756   0.181   3.925   3.061
  184SL       H 2757   0.357   3.918   3.312
  184SL       H 2758   0.339   4.055   3.201
  184SL       H 2759   0.546   3.887   3.164
  184SL       H 2760   0.449   3.935   3.021
  185SL       O 2761   0.100   0.587   0.628
  185SL       S 2762   0.183   0.529   0.731
  185SL       O 2763   0.128   0.481   0.856
  185SL       C 2764   0.282   0.399   0.658
  185SL       C 2765   0.426   0.433   0.695
  185SL       C 2766   0.437   0.586   0.688
  185SL       C 2767   0.319   0.639   0.766
  185SL       H 2768   0.250   0.302   0.696
  185SL       H 2769   0.268   0.403   0.549
  185SL       H 2770   0.497   0.384   0.627
  185SL       H 2771   0.447   0.399   0.797
  185SL       H 2772   0.430   0.618   0.582
  185SL       H 2773   0.532   0.622   0.727
  185SL       H 2774   0.292   0.741   0.737
  185SL       H 2775   0.338   0.636   0.873
  186SL       O 2776   2.237   0.535   1.015
  186SL       S 2777   2.357   0.488   0.951
  186SL       O 2778   2.366   0.356   0.892
  186SL       C 2779   2.409   0.609   0.831
  186SL       C 2780   2.554   0.639   0.866
  186SL       C 2781   2.562   0.638   1.019
  186SL       C 2782   2.495   0.510   1.063
  186SL       H 2783   2.398   0.568   0.730
  186SL       H 2784   2.347   0.697   0.843
  186SL       H 2785   2.586   0.736   0.826
  186SL       H 2786   2.620   0.562   0.825
  186SL       H 2787   2.508   0.725   1.059
  186SL       H 2788   2.665   0.643   1.055
  186SL       H 2789   2.458   0.514   1.166
  186SL       H 2790   2.561   0.424   1.051
  187SL       O 2791   4.008   0.649   2.116
  187SL       S 2792   3.956   0.645   2.251
  187SL       O 2793   4.013   0.725   2.357
  187SL       C 2794   3.780   0.675   2.244
  187SL       C 2795   3.718   0.557   2.319
  187SL       C 2796   3.802   0.435   2.284
  187SL       C 2797   3.946   0.476   2.304
  187SL       H 2798   3.756   0.771   2.290
  187SL       H 2799   3.749   0.674   2.140
  187SL       H 2800   3.613   0.543   2.292
  187SL       H 2801   3.722   0.575   2.428
  187SL       H 2802   3.785   0.408   2.178
  187SL       H 2803   3.776   0.348   2.344
  187SL       H 2804   4.016   0.415   2.247
  187SL       H 2805   3.973   0.473   2.410
  188SL       O 2806   2.530   2.379   2.393
  188SL       S 2807   2.568   2.350   2.257
  188SL       O 2808   2.470   2.337   2.151
  188SL       C 2809   2.692   2.467   2.207
  188SL       C 2810   2.809   2.382   2.156
  188SL       C 2811   2.815   2.260   2.248
  188SL       C 2812   2.674   2.206   2.256
  188SL       H 2813   2.653   2.534   2.130
  188SL       H 2814   2.722   2.525   2.294
  188SL       H 2815   2.903   2.438   2.157
  188SL       H 2816   2.790   2.350   2.053
  188SL       H 2817   2.849   2.291   2.348
  188SL       H 2818   2.885   2.184   2.211
  188SL       H 2819   2.656   2.147   2.346
  188SL       H 2820   2.649   2.148   2.167
  189SL       O 2821   0.795   1.702   0.948
  189SL       S 2822   0.704   1.646   0.851
  189SL       O 2823   0.751   1.589   0.726
  189SL       C 2824   0.599   1.527   0.933
  189SL       C 2825   0.457   1.569   0.900
  189SL       C 2826   0.457   1.722   0.900
  189SL       C 2827   0.575   1.764   0.816
  189SL       H 2828   0.622   1.426   0.898
  189SL       H 2829   0.618   1.534   1.040
  189SL       H 2830   0.385   1.529   0.972
  189SL       H 2831   0.429   1.533   0.800
  189SL       H 2832   0.469   1.758   1.004
  189SL       H 2833   0.363   1.763   0.862
  189SL       H 2834   0.611   1.865   0.839
  189SL       H 2835   0.552   1.757   0.709
  190SL       O 2836   0.627   3.632   3.334
  190SL       S 2837   0.614   3.677   3.471
  190SL       O 2838   0.499   3.643   3.552
  190SL       C 2839   0.762   3.632   3.560
  190SL       C 2840   0.812   3.761   3.623
  190SL       C 2841   0.784   3.872   3.521
  190SL       C 2842   0.640   3.853   3.478
  190SL       H 2843   0.740   3.554   3.634
  190SL       H 2844   0.835   3.594   3.487
  190SL       H 2845   0.918   3.756   3.648
  190SL       H 2846   0.756   3.781   3.716
  190SL       H 2847   0.851   3.860   3.435
  190SL       H 2848   0.801   3.971   3.563
  190SL       H 2849   0.619   3.897   3.380
  190SL       H 2850   0.571   3.894   3.553
  191SL       O 2851   0.782   2.033   0.448
  191SL       S 2852   0.873   1.921   0.434
  191SL       O 2853   1.011   1.928   0.477
  191SL       C 2854   0.797   1.777   0.508
  191SL       C 2855   0.800   1.670   0.399
  191SL       C 2856   0.774   1.743   0.267
  191SL       C 2857   0.868   1.862   0.266
  191SL       H 2858   0.851   1.748   0.598
  191SL       H 2859   0.694   1.803   0.534
  191SL       H 2860   0.726   1.592   0.418
  191SL       H 2861   0.899   1.623   0.396
  191SL       H 2862   0.669   1.777   0.264
  191SL       H 2863   0.790   1.678   0.181
  191SL       H 2864   0.833   1.942   0.200
  191SL       H 2865   0.969   1.832   0.238
  192SL       O 2866   1.930   3.891   2.613
  192SL       S 2867   2.011   3.966   2.705
  192SL       O 2868   1.958   4.078   2.781
  192SL       C 2869   2.090   3.852   2.817
  192SL       C 2870   2.238   3.885   2.809
  192SL       C 2871   2.267   3.919   2.663
  192SL       C 2872   2.160   4.019   2.623
  192SL       H 2873   2.049   3.864   2.918
  192SL       H 2874   2.070   3.751   2.782
  192SL       H 2875   2.300   3.800   2.843
  192SL       H 2876   2.262   3.971   2.873
  192SL       H 2877   2.258   3.828   2.602
  192SL       H 2878   2.367   3.960   2.649
  192SL       H 2879   2.143   4.022   2.515
  192SL       H 2880   2.185   4.119   2.659
  193SL       O 2881   3.745   1.357   2.181
  193SL       S 2882   3.857   1.404   2.103
  193SL       O 2883   3.890   1.346   1.974
  193SL       C 2884   3.842   1.581   2.085
  193SL       C 2885   3.975   1.637   2.133
  193SL       C 2886   4.018   1.550   2.251
  193SL       C 2887   4.003   1.407   2.205
  193SL       H 2888   3.820   1.606   1.981
  193SL       H 2889   3.760   1.615   2.149
  193SL       H 2890   3.966   1.742   2.161
  193SL       H 2891   4.050   1.630   2.053
  193SL       H 2892   3.951   1.570   2.336
  193SL       H 2893   4.120   1.572   2.283
  193SL       H 2894   3.991   1.336   2.288
  193SL       H 2895   4.087   1.377   2.142
  194SL       O 2896   1.045   1.520   1.663
  194SL       S 2897   1.146   1.610   1.714
  194SL       O 2898   1.275   1.626   1.649
  194SL       C 2899   1.073   1.771   1.737
  194SL       C 2900   1.103   1.807   1.882
  194SL       C 2901   1.092   1.678   1.962
  194SL       C 2902   1.173   1.575   1.887
  194SL       H 2903   1.115   1.842   1.666
  194SL       H 2904   0.965   1.761   1.721
  194SL       H 2905   1.034   1.884   1.919
  194SL       H 2906   1.205   1.847   1.891
  194SL       H 2907   0.986   1.647   1.967
  194SL       H 2908   1.127   1.690   2.065
  194SL       H 2909   1.143   1.472   1.909
  194SL       H 2910   1.280   1.587   1.907
  195SL       O 2911   3.474   3.007   3.563
  195SL       S 2912   3.546   2.886   3.592
  195SL       O 2913   3.507   2.796   3.699
  195SL       C 2914   3.562   2.792   3.441
  195SL       C 2915   3.711   2.765   3.426
  195SL       C 2916   3.783   2.890   3.476
  195SL       C 2917   3.720   2.924   3.609
  195SL       H 2918   3.503   2.701   3.447
  195SL       H 2919   3.526   2.854   3.358
  195SL       H 2920   3.738   2.742   3.322
  195SL       H 2921   3.740   2.679   3.488
  195SL       H 2922   3.766   2.973   3.404
  195SL       H 2923   3.890   2.876   3.484
  195SL       H 2924   3.731   3.029   3.636
  195SL       H 2925   3.760   2.861   3.689
  196SL       O 2926   0.757   2.204   0.583
  196SL       S 2927   0.650   2.188   0.679
  196SL       O 2928   0.677   2.165   0.819
  196SL       C 2929   0.537   2.325   0.663
  196SL       C 2930   0.400   2.261   0.643
  196SL       C 2931   0.423   2.137   0.557
  196SL       C 2932   0.538   2.062   0.620
  196SL       H 2933   0.542   2.388   0.752
  196SL       H 2934   0.566   2.382   0.574
  196SL       H 2935   0.330   2.330   0.596
  196SL       H 2936   0.358   2.231   0.740
  196SL       H 2937   0.450   2.168   0.454
  196SL       H 2938   0.333   2.075   0.549
  196SL       H 2939   0.590   1.996   0.550
  196SL       H 2940   0.504   2.005   0.707
  197SL       O 2941   3.215   3.327   3.137
  197SL       S 2942   3.285   3.334   3.011
  197SL       O 2943   3.263   3.238   2.905
  197SL       C 2944   3.266   3.499   2.945
  197SL       C 2945   3.408   3.547   2.917
  197SL       C 2946   3.494   3.493   3.030
  197SL       C 2947   3.461   3.346   3.042
  197SL       H 2948   3.204   3.496   2.855
  197SL       H 2949   3.218   3.561   3.021
  197SL       H 2950   3.412   3.657   2.911
  197SL       H 2951   3.443   3.507   2.821
  197SL       H 2952   3.469   3.545   3.124
  197SL       H 2953   3.601   3.509   3.012
  197SL       H 2954   3.483   3.304   3.141
  197SL       H 2955   3.512   3.288   2.965
  198SL       O 2956   2.526   1.453   3.878
  198SL       S 2957   2.491   1.551   3.978
  198SL       O 2958   2.497   1.521   4.120
  198SL       C 2959   2.583   1.700   3.946
  198SL       C 2960   2.478   1.811   3.939
  198SL       C 2961   2.357   1.749   3.870
  198SL       C 2962   2.330   1.618   3.940
  198SL       H 2963   2.657   1.717   4.025
  198SL       H 2964   2.634   1.689   3.850
  198SL       H 2965   2.516   1.898   3.885
  198SL       H 2966   2.451   1.843   4.040
  198SL       H 2967   2.380   1.731   3.764
  198SL       H 2968   2.270   1.815   3.874
  198SL       H 2969   2.274   1.547   3.879
  198SL       H 2970   2.278   1.634   4.035
  199SL       O 2971   3.720   3.487   0.963
  199SL       S 2972   3.716   3.626   0.923
  199SL       O 2973   3.717   3.666   0.784
  199SL       C 2974   3.579   3.705   1.005
  199SL       C 2975   3.639   3.826   1.076
  199SL       C 2976   3.777   3.782   1.126
  199SL       C 2977   3.845   3.715   1.009
  199SL       H 2978   3.502   3.732   0.932
  199SL       H 2979   3.538   3.634   1.078
  199SL       H 2980   3.575   3.861   1.158
  199SL       H 2981   3.651   3.909   1.005
  199SL       H 2982   3.763   3.710   1.209
  199SL       H 2983   3.835   3.866   1.165
  199SL       H 2984   3.924   3.645   1.040
  199SL       H 2985   3.886   3.789   0.940
  200SL       O 2986   2.593   1.046   3.560
  200SL       S 2987   2.602   1.142   3.668
  200SL       O 2988   2.579   1.105   3.806
  200SL       C 2989   2.758   1.227   3.656
  200SL       C 2990   2.722   1.376   3.654
  200SL       C 2991   2.593   1.387   3.573
  200SL       C 2992   2.499   1.283   3.629
  200SL       H 2993   2.822   1.200   3.740
  200SL       H 2994   2.805   1.198   3.562
  200SL       H 2995   2.803   1.436   3.611
  200SL       H 2996   2.705   1.411   3.756
  200SL       H 2997   2.615   1.366   3.467
  200SL       H 2998   2.550   1.487   3.579
  200SL       H 2999   2.421   1.253   3.557
  200SL       H 3000   2.453   1.317   3.722
  201SL       O 3001   2.015   2.196   2.256
  201SL       S 3002   1.971   2.150   2.385
  201SL       O 3003   2.032   2.196   2.508
  201SL       C 3004   1.794   2.173   2.396
  201SL       C 3005   1.739   2.037   2.435
  201SL       C 3006   1.823   1.934   2.360
  201SL       C 3007   1.967   1.972   2.386
  201SL       H 3008   1.771   2.251   2.470
  201SL       H 3009   1.758   2.204   2.297
  201SL       H 3010   1.632   2.028   2.409
  201SL       H 3011   1.748   2.022   2.543
  201SL       H 3012   1.801   1.939   2.253
  201SL       H 3013   1.802   1.832   2.393
  201SL       H 3014   2.036   1.934   2.310
  201SL       H 3015   2.000   1.938   2.485
  202SL       O 3016   2.861   0.100   0.981
  202SL       S 3017   2.787   0.215   1.028
  202SL       O 3018   2.643   0.222   1.020
  202SL       C 3019   2.838   0.251   1.195
  202SL       C 3020   2.878   0.398   1.193
  202SL       C 3021   2.947   0.421   1.059
  202SL       C 3022   2.856   0.362   0.954
  202SL       H 3023   2.756   0.231   1.264
  202SL       H 3024   2.923   0.187   1.219
  202SL       H 3025   2.945   0.422   1.277
  202SL       H 3026   2.790   0.462   1.201
  202SL       H 3027   3.044   0.369   1.058
  202SL       H 3028   2.967   0.527   1.041
  202SL       H 3029   2.908   0.336   0.862
  202SL       H 3030   2.773   0.430   0.932
  203SL       O 3031   3.701   1.400   0.393
  203SL       S 3032   3.680   1.273   0.327
  203SL       O 3033   3.666   1.262   0.183
  203SL       C 3034   3.808   1.160   0.381
  203SL       C 3035   3.733   1.037   0.432
  203SL       C 3036   3.607   1.089   0.501
  203SL       C 3037   3.544   1.188   0.405
  203SL       H 3038   3.875   1.137   0.298
  203SL       H 3039   3.863   1.208   0.462
  203SL       H 3040   3.795   0.978   0.499
  203SL       H 3041   3.704   0.973   0.347
  203SL       H 3042   3.636   1.141   0.595
  203SL       H 3043   3.539   1.009   0.527
  203SL       H 3044   3.479   1.260   0.455
  203SL       H 3045   3.488   1.136   0.327
  204SL       O 3046   3.231   2.478   1.718
  204SL       S 3047   3.198   2.561   1.831
  204SL       O 3048   3.209   2.512   1.967
  204SL       C 3049   3.287   2.714   1.817
  204SL       C 3050   3.181   2.823   1.828
  204SL       C 3051   3.058   2.769   1.755
  204SL       C 3052   3.035   2.629   1.807
  204SL       H 3053   3.363   2.722   1.896
  204SL       H 3054   3.335   2.717   1.719
  204SL       H 3055   3.216   2.918   1.785
  204SL       H 3056   3.156   2.841   1.933
  204SL       H 3057   3.079   2.766   1.646
  204SL       H 3058   2.970   2.833   1.770
  204SL       H 3059   2.979   2.566   1.738
  204SL       H 3060   2.986   2.632   1.905
  205SL       O 3061   1.739   0.532   1.905
  205SL       S 3062   1.840   0.430   1.909
  205SL       O 3063   1.817   0.301   1.972
  205SL       C 3064   1.900   0.403   1.743
  205SL       C 3065   2.052   0.419   1.753
  205SL       C 3066   2.077   0.531   1.853
  205SL       C 3067   1.991   0.499   1.974
  205SL       H 3068   1.871   0.304   1.708
  205SL       H 3069   1.858   0.480   1.679
  205SL       H 3070   2.096   0.441   1.656
  205SL       H 3071   2.097   0.326   1.790
  205SL       H 3072   2.045   0.627   1.809
  205SL       H 3073   2.182   0.540   1.880
  205SL       H 3074   1.968   0.588   2.035
  205SL       H 3075   2.039   0.423   2.037
  206SL       O 3076   1.258   1.325   1.371
  206SL       S 3077   1.388   1.331   1.309
  206SL       O 3078   1.407   1.305   1.168
  206SL       C 3079   1.464   1.486   1.351
  206SL       C 3080   1.600   1.450   1.410
  206SL       C 3081   1.578   1.322   1.491
  206SL       C 3082   1.501   1.228   1.401
  206SL       H 3083   1.473   1.549   1.262
  206SL       H 3084   1.402   1.536   1.425
  206SL       H 3085   1.640   1.531   1.472
  206SL       H 3086   1.672   1.430   1.330
  206SL       H 3087   1.518   1.346   1.581
  206SL       H 3088   1.672   1.278   1.525
  206SL       H 3089   1.445   1.152   1.457
  206SL       H 3090   1.568   1.179   1.329
  207SL       O 3091   2.722   2.124   3.994
  207SL       S 3092   2.582   2.157   3.984
  207SL       O 3093   2.479   2.075   4.047
  207SL       C 3094   2.559   2.327   4.032
  207SL       C 3095   2.484   2.391   3.916
  207SL       C 3096   2.541   2.328   3.789
  207SL       C 3097   2.539   2.179   3.812
  207SL       H 3098   2.504   2.332   4.126
  207SL       H 3099   2.658   2.372   4.045
  207SL       H 3100   2.496   2.500   3.916
  207SL       H 3101   2.377   2.369   3.924
  207SL       H 3102   2.644   2.364   3.774
  207SL       H 3103   2.483   2.356   3.700
  207SL       H 3104   2.611   2.125   3.749
  207SL       H 3105   2.439   2.138   3.797
  208SL       O 3106   3.457   1.795   0.396
  208SL       S 3107   3.322   1.772   0.443
  208SL       O 3108   3.250   1.870   0.522
  208SL       C 3109   3.221   1.723   0.304
  208SL       C 3110   3.157   1.591   0.347
  208SL       C 3111   3.262   1.516   0.427
  208SL       C 3112   3.317   1.615   0.528
  208SL       H 3113   3.148   1.801   0.282
  208SL       H 3114   3.287   1.708   0.218
  208SL       H 3115   3.123   1.534   0.260
  208SL       H 3116   3.069   1.611   0.410
  208SL       H 3117   3.343   1.483   0.359
  208SL       H 3118   3.221   1.427   0.476
  208SL       H 3119   3.417   1.589   0.564
  208SL       H 3120   3.248   1.626   0.613
  209SL       O 3121   2.119   1.798   1.220
  209SL       S 3122   2.012   1.735   1.294
  209SL       O 3123   2.013   1.729   1.439
  209SL       C 3124   1.857   1.804   1.240
  209SL       C 3125   1.772   1.684   1.201
  209SL       C 3126   1.867   1.584   1.136
  209SL       C 3127   1.985   1.571   1.230
  209SL       H 3128   1.812   1.864   1.320
  209SL       H 3129   1.877   1.868   1.153
  209SL       H 3130   1.691   1.713   1.133
  209SL       H 3131   1.727   1.639   1.291
  209SL       H 3132   1.900   1.623   1.038
  209SL       H 3133   1.819   1.487   1.119
  209SL       H 3134   2.076   1.536   1.180
  209SL       H 3135   1.962   1.506   1.314
  210SL       O 3136   0.248   2.511   2.185
  210SL       S 3137   0.291   2.625   2.107
  210SL       O 3138   0.326   2.613   1.967
  210SL       C 3139   0.170   2.754   2.126
  210SL       C 3140   0.249   2.876   2.171
  210SL       C 3141   0.358   2.824   2.265
  210SL       C 3142   0.423   2.708   2.193
  210SL       H 3143   0.117   2.771   2.032
  210SL       H 3144   0.099   2.723   2.203
  210SL       H 3145   0.185   2.950   2.221
  210SL       H 3146   0.296   2.925   2.084
  210SL       H 3147   0.311   2.789   2.359
  210SL       H 3148   0.431   2.901   2.290
  210SL       H 3149   0.472   2.638   2.261
  210SL       H 3150   0.494   2.743   2.118
  211SL       O 3151   2.428   1.840   1.732
  211SL       S 3152   2.510   1.950   1.688
  211SL       O 3153   2.565   1.956   1.554
  211SL       C 3154   2.424   2.102   1.722
  211SL       C 3155   2.522   2.187   1.802
  211SL       C 3156   2.596   2.089   1.894
  211SL       C 3157   2.642   1.975   1.805
  211SL       H 3158   2.394   2.151   1.628
  211SL       H 3159   2.335   2.079   1.781
  211SL       H 3160   2.471   2.264   1.860
  211SL       H 3161   2.594   2.236   1.735
  211SL       H 3162   2.527   2.052   1.971
  211SL       H 3163   2.680   2.137   1.945
  211SL       H 3164   2.660   1.883   1.861
  211SL       H 3165   2.732   2.003   1.749
  212SL       O 3166   2.149   2.332   1.639
  212SL       S 3167   2.117   2.367   1.503
  212SL       O 3168   1.989   2.335   1.443
  212SL       C 3169   2.150   2.541   1.480
  212SL       C 3170   2.242   2.548   1.359
  212SL       C 3171   2.336   2.428   1.370
  212SL       C 3172   2.247   2.308   1.396
  212SL       H 3173   2.056   2.595   1.464
  212SL       H 3174   2.199   2.578   1.570
  212SL       H 3175   2.298   2.643   1.357
  212SL       H 3176   2.184   2.542   1.266
  212SL       H 3177   2.405   2.443   1.455
  212SL       H 3178   2.396   2.415   1.280
  212SL       H 3179   2.300   2.225   1.444
  212SL       H 3180   2.200   2.273   1.303
  213SL       O 3181   2.392   3.801   3.742
  213SL       S 3182   2.251   3.790   3.711
  213SL       O 3183   2.194   3.666   3.662
  213SL       C 3184   2.157   3.846   3.852
  213SL       C 3185   2.063   3.952   3.797
  213SL       C 3186   2.141   4.028   3.690
  213SL       C 3187   2.204   3.922   3.602
  213SL       H 3188   2.104   3.762   3.898
  213SL       H 3189   2.227   3.890   3.924
  213SL       H 3190   2.027   4.019   3.876
  213SL       H 3191   1.975   3.904   3.751
  213SL       H 3192   2.220   4.088   3.739
  213SL       H 3193   2.078   4.096   3.633
  213SL       H 3194   2.293   3.959   3.548
  213SL       H 3195   2.132   3.882   3.530
  214SL       O 3196   1.625   2.570   2.975
  214SL       S 3197   1.510   2.524   3.047
  214SL       O 3198   1.518   2.479   3.185
  214SL       C 3199   1.381   2.647   3.035
  214SL       C 3200   1.259   2.572   2.982
  214SL       C 3201   1.312   2.469   2.882
  214SL       C 3202   1.427   2.399   2.952
  214SL       H 3203   1.363   2.693   3.132
  214SL       H 3204   1.414   2.723   2.963
  214SL       H 3205   1.187   2.640   2.936
  214SL       H 3206   1.209   2.520   3.065
  214SL       H 3207   1.349   2.522   2.792
  214SL       H 3208   1.235   2.399   2.850
  214SL       H 3209   1.497   2.353   2.882
  214SL       H 3210   1.389   2.323   3.021
  215SL       O 3211   0.721   0.708   2.151
  215SL       S 3212   0.812   0.776   2.239
  215SL       O 3213   0.856   0.718   2.364
  215SL       C 3214   0.955   0.826   2.145
  215SL       C 3215   0.970   0.975   2.171
  215SL       C 3216   0.827   1.031   2.177
  215SL       C 3217   0.751   0.941   2.271
  215SL       H 3218   1.043   0.769   2.178
  215SL       H 3219   0.935   0.806   2.040
  215SL       H 3220   1.029   1.024   2.093
  215SL       H 3221   1.020   0.993   2.267
  215SL       H 3222   0.783   1.028   2.076
  215SL       H 3223   0.826   1.135   2.210
  215SL       H 3224   0.643   0.943   2.254
  215SL       H 3225   0.773   0.965   2.375
  216SL       O 3226   2.727   3.637   1.360
  216SL       S 3227   2.601   3.708   1.354
  216SL       O 3228   2.570   3.799   1.245
  216SL       C 3229   2.469   3.591   1.372
  216SL       C 3230   2.383   3.644   1.486
  216SL       C 3231   2.481   3.704   1.587
  216SL       C 3232   2.574   3.793   1.508
  216SL       H 3233   2.413   3.582   1.278
  216SL       H 3234   2.512   3.494   1.398
  216SL       H 3235   2.322   3.565   1.531
  216SL       H 3236   2.316   3.723   1.449
  216SL       H 3237   2.538   3.623   1.635
  216SL       H 3238   2.429   3.759   1.666
  216SL       H 3239   2.670   3.810   1.558
  216SL       H 3240   2.527   3.889   1.486
  217SL       O 3241   2.470   2.984   1.240
  217SL       S 3242   2.558   2.910   1.152
  217SL       O 3243   2.690   2.958   1.118
  217SL       C 3244   2.569   2.743   1.211
  217SL       C 3245   2.533   2.656   1.091
  217SL       C 3246   2.421   2.730   1.017
  217SL       C 3247   2.470   2.873   1.001
  217SL       H 3248   2.670   2.722   1.248
  217SL       H 3249   2.497   2.730   1.291
  217SL       H 3250   2.500   2.556   1.122
  217SL       H 3251   2.619   2.644   1.024
  217SL       H 3252   2.329   2.728   1.078
  217SL       H 3253   2.398   2.685   0.920
  217SL       H 3254   2.388   2.944   0.988
  217SL       H 3255   2.541   2.881   0.918
  218SL       O 3256   1.532   3.670   3.599
  218SL       S 3257   1.628   3.569   3.635
  218SL       O 3258   1.628   3.438   3.572
  218SL       C 3259   1.792   3.639   3.623
  218SL       C 3260   1.857   3.611   3.758
  218SL       C 3261   1.746   3.628   3.862
  218SL       C 3262   1.629   3.547   3.812
  218SL       H 3263   1.847   3.593   3.540
  218SL       H 3264   1.782   3.746   3.606
  218SL       H 3265   1.941   3.679   3.777
  218SL       H 3266   1.895   3.508   3.761
  218SL       H 3267   1.719   3.734   3.869
  218SL       H 3268   1.778   3.595   3.961
  218SL       H 3269   1.533   3.581   3.853
  218SL       H 3270   1.642   3.440   3.832
  219SL       O 3271   3.030   2.081   2.682
  219SL       S 3272   2.984   2.176   2.584
  219SL       O 3273   2.986   2.147   2.442
  219SL       C 3274   2.821   2.231   2.629
  219SL       C 3275   2.830   2.383   2.633
  219SL       C 3276   2.968   2.416   2.689
  219SL       C 3277   3.066   2.332   2.611
  219SL       H 3278   2.747   2.194   2.557
  219SL       H 3279   2.798   2.191   2.729
  219SL       H 3280   2.750   2.426   2.693
  219SL       H 3281   2.821   2.423   2.531
  219SL       H 3282   2.971   2.390   2.796
  219SL       H 3283   2.991   2.523   2.681
  219SL       H 3284   3.160   2.315   2.665
  219SL       H 3285   3.087   2.376   2.513
  220SL       O 3286   3.258   2.805   3.312
  220SL       S 3287   3.257   2.861   3.179
  220SL       O 3288   3.378   2.868   3.098
  220SL       C 3289   3.130   2.780   3.084
  220SL       C 3290   3.044   2.893   3.028
  220SL       C 3291   3.038   2.999   3.137
  220SL       C 3292   3.180   3.022   3.182
  220SL       H 3293   3.174   2.718   3.006
  220SL       H 3294   3.071   2.717   3.153
  220SL       H 3295   2.944   2.857   3.000
  220SL       H 3296   3.091   2.934   2.938
  220SL       H 3297   2.977   2.962   3.221
  220SL       H 3298   2.992   3.092   3.102
  220SL       H 3299   3.187   3.063   3.283
  220SL       H 3300   3.234   3.086   3.112
  221SL       O 3301   1.954   3.995   3.125
  221SL       S 3302   2.044   3.976   3.236
  221SL       O 3303   2.022   4.039   3.364
  221SL       C 3304   2.068   3.801   3.260
  221SL       C 3305   2.219   3.781   3.258
  221SL       C 3306   2.274   3.877   3.153
  221SL       C 3307   2.211   4.012   3.183
  221SL       H 3308   2.023   3.770   3.355
  221SL       H 3309   2.021   3.748   3.177
  221SL       H 3310   2.246   3.677   3.235
  221SL       H 3311   2.262   3.806   3.356
  221SL       H 3312   2.243   3.843   3.053
  221SL       H 3313   2.383   3.883   3.154
  221SL       H 3314   2.208   4.078   3.096
  221SL       H 3315   2.262   4.062   3.265
  222SL       O 3316   1.589   4.055   2.593
  222SL       S 3317   1.592   3.965   2.480
  222SL       O 3318   1.642   4.007   2.350
  222SL       C 3319   1.676   3.815   2.528
  222SL       C 3320   1.579   3.703   2.493
  222SL       C 3321   1.439   3.756   2.524
  222SL       C 3322   1.431   3.892   2.459
  222SL       H 3323   1.771   3.806   2.476
  222SL       H 3324   1.693   3.819   2.636
  222SL       H 3325   1.601   3.612   2.550
  222SL       H 3326   1.586   3.679   2.386
  222SL       H 3327   1.427   3.765   2.633
  222SL       H 3328   1.361   3.689   2.487
  222SL       H 3329   1.355   3.957   2.504
  222SL       H 3330   1.412   3.883   2.351
  223SL       O 3331   2.888   2.232   2.925
  223SL       S 3332   2.974   2.122   2.962
  223SL       O 3333   2.950   1.987   2.915
  223SL       C 3334   3.142   2.167   2.923
  223SL       C 3335   3.220   2.146   3.053
  223SL       C 3336   3.126   2.189   3.166
  223SL       C 3337   2.994   2.120   3.139
  223SL       H 3338   3.180   2.106   2.841
  223SL       H 3339   3.144   2.273   2.894
  223SL       H 3340   3.313   2.203   3.053
  223SL       H 3341   3.245   2.040   3.064
  223SL       H 3342   3.114   2.298   3.163
  223SL       H 3343   3.166   2.162   3.264
  223SL       H 3344   2.909   2.171   3.186
  223SL       H 3345   2.997   2.015   3.171
  224SL       O 3346   1.291   3.644   1.893
  224SL       S 3347   1.218   3.604   1.775
  224SL       O 3348   1.284   3.578   1.649
  224SL       C 3349   1.115   3.465   1.817
  224SL       C 3350   0.974   3.505   1.774
  224SL       C 3351   0.961   3.654   1.805
  224SL       C 3352   1.085   3.720   1.747
  224SL       H 3353   1.151   3.375   1.766
  224SL       H 3354   1.120   3.451   1.925
  224SL       H 3355   0.898   3.446   1.826
  224SL       H 3356   0.962   3.489   1.666
  224SL       H 3357   0.958   3.669   1.915
  224SL       H 3358   0.870   3.697   1.764
  224SL       H 3359   1.109   3.816   1.795
  224SL       H 3360   1.075   3.734   1.639
  225SL       O 3361   1.076   1.140   0.460
  225SL       S 3362   1.137   1.256   0.521
  225SL       O 3363   1.195   1.363   0.442
  225SL       C 3364   1.022   1.326   0.638
  225SL       C 3365   1.099   1.335   0.769
  225SL       C 3366   1.188   1.210   0.775
  225SL       C 3367   1.257   1.202   0.641
  225SL       H 3368   0.987   1.423   0.603
  225SL       H 3369   0.937   1.257   0.647
  225SL       H 3370   1.032   1.341   0.855
  225SL       H 3371   1.162   1.425   0.769
  225SL       H 3372   1.124   1.122   0.791
  225SL       H 3373   1.259   1.215   0.858
  225SL       H 3374   1.291   1.101   0.617
  225SL       H 3375   1.342   1.271   0.637
  226SL       O 3376   1.805   4.109   3.002
  226SL       S 3377   1.736   4.029   3.100
  226SL       O 3378   1.771   4.032   3.241
  226SL       C 3379   1.561   4.058   3.084
  226SL       C 3380   1.498   3.920   3.067
  226SL       C 3381   1.596   3.839   2.982
  226SL       C 3382   1.732   3.859   3.045
  226SL       H 3383   1.523   4.111   3.172
  226SL       H 3384   1.544   4.119   2.994
  226SL       H 3385   1.400   3.926   3.021
  226SL       H 3386   1.487   3.872   3.165
  226SL       H 3387   1.596   3.879   2.879
  226SL       H 3388   1.569   3.734   2.978
  226SL       H 3389   1.815   3.842   2.975
  226SL       H 3390   1.745   3.796   3.133
  227SL       O 3391   2.583   2.614   1.515
  227SL       S 3392   2.607   2.688   1.636
  227SL       O 3393   2.701   2.798   1.642
  227SL       C 3394   2.450   2.742   1.702
  227SL       C 3395   2.448   2.692   1.846
  227SL       C 3396   2.516   2.555   1.845
  227SL       C 3397   2.645   2.573   1.768
  227SL       H 3398   2.442   2.851   1.695
  227SL       H 3399   2.371   2.695   1.643
  227SL       H 3400   2.346   2.686   1.885
  227SL       H 3401   2.504   2.761   1.910
  227SL       H 3402   2.450   2.483   1.793
  227SL       H 3403   2.534   2.517   1.945
  227SL       H 3404   2.683   2.480   1.725
  227SL       H 3405   2.722   2.619   1.831
  228SL       O 3406   0.802   1.445   2.984
  228SL       S 3407   0.846   1.560   2.908
  228SL       O 3408   0.895   1.548   2.772
  228SL       C 3409   0.717   1.683   2.913
  228SL       C 3410   0.785   1.810   2.962
  228SL       C 3411   0.887   1.766   3.067
  228SL       C 3412   0.965   1.652   3.004
  228SL       H 3413   0.673   1.695   2.814
  228SL       H 3414   0.641   1.650   2.984
  228SL       H 3415   0.713   1.881   3.004
  228SL       H 3416   0.837   1.860   2.879
  228SL       H 3417   0.834   1.730   3.157
  228SL       H 3418   0.953   1.847   3.098
  228SL       H 3419   1.011   1.586   3.078
  228SL       H 3420   1.041   1.690   2.936
  229SL       O 3421   3.395   3.710   4.075
  229SL       S 3422   3.314   3.825   4.040
  229SL       O 3423   3.192   3.858   4.111
  229SL       C 3424   3.419   3.969   4.035
  229SL       C 3425   3.395   4.030   3.897
  229SL       C 3426   3.379   3.913   3.801
  229SL       C 3427   3.279   3.820   3.865
  229SL       H 3428   3.393   4.037   4.116
  229SL       H 3429   3.523   3.936   4.046
  229SL       H 3430   3.478   4.096   3.868
  229SL       H 3431   3.304   4.090   3.898
  229SL       H 3432   3.476   3.862   3.788
  229SL       H 3433   3.346   3.946   3.702
  229SL       H 3434   3.287   3.717   3.829
  229SL       H 3435   3.177   3.856   3.851
  230SL       O 3436   0.506   2.327   1.358
  230SL       S 3437   0.607   2.322   1.256
  230SL       O 3438   0.706   2.215   1.251
  230SL       C 3439   0.528   2.335   1.097
  230SL       C 3440   0.599   2.451   1.027
  230SL       C 3441   0.628   2.554   1.135
  230SL       C 3442   0.692   2.479   1.249
  230SL       H 3443   0.537   2.241   1.042
  230SL       H 3444   0.423   2.358   1.113
  230SL       H 3445   0.538   2.492   0.946
  230SL       H 3446   0.693   2.416   0.983
  230SL       H 3447   0.533   2.600   1.168
  230SL       H 3448   0.693   2.634   1.099
  230SL       H 3449   0.681   2.530   1.346
  230SL       H 3450   0.797   2.459   1.230
  231SL       O 3451   1.421   2.364   0.726
  231SL       S 3452   1.374   2.298   0.607
  231SL       O 3453   1.421   2.337   0.475
  231SL       C 3454   1.397   2.122   0.626
  231SL       C 3455   1.260   2.061   0.598
  231SL       C 3456   1.157   2.158   0.657
  231SL       C 3457   1.196   2.296   0.607
  231SL       H 3458   1.474   2.086   0.558
  231SL       H 3459   1.427   2.103   0.729
  231SL       H 3460   1.250   1.961   0.641
  231SL       H 3461   1.244   2.053   0.489
  231SL       H 3462   1.163   2.155   0.767
  231SL       H 3463   1.055   2.132   0.628
  231SL       H 3464   1.158   2.376   0.670
  231SL       H 3465   1.163   2.311   0.504
  232SL       O 3466   1.412   1.976   4.051
  232SL       S 3467   1.541   2.018   4.002
  232SL       O 3468   1.611   2.132   4.057
  232SL       C 3469   1.651   1.878   4.001
  232SL       C 3470   1.706   1.871   3.859
  232SL       C 3471   1.590   1.910   3.767
  232SL       C 3472   1.532   2.037   3.825
  232SL       H 3473   1.730   1.891   4.076
  232SL       H 3474   1.592   1.789   4.025
  232SL       H 3475   1.744   1.771   3.836
  232SL       H 3476   1.788   1.942   3.847
  232SL       H 3477   1.514   1.830   3.768
  232SL       H 3478   1.623   1.923   3.664
  232SL       H 3479   1.428   2.054   3.795
  232SL       H 3480   1.593   2.124   3.797
  233SL       O 3481   2.068   3.239   2.080
  233SL       S 3482   2.109   3.175   2.203
  233SL       O 3483   2.062   3.219   2.333
  233SL       C 3484   2.078   3.000   2.188
  233SL       C 3485   2.212   2.933   2.221
  233SL       C 3486   2.320   3.023   2.162
  233SL       C 3487   2.287   3.164   2.207
  233SL       H 3488   1.998   2.969   2.255
  233SL       H 3489   2.050   2.979   2.084
  233SL       H 3490   2.217   2.832   2.181
  233SL       H 3491   2.224   2.927   2.330
  233SL       H 3492   2.317   3.017   2.052
  233SL       H 3493   2.420   2.994   2.194
  233SL       H 3494   2.330   3.241   2.142
  233SL       H 3495   2.319   3.181   2.311
  234SL       O 3496   2.430   2.684   2.966
  234SL       S 3497   2.569   2.680   3.008
  234SL       O 3498   2.673   2.624   2.924
  234SL       C 3499   2.617   2.843   3.059
  234SL       C 3500   2.674   2.826   3.200
  234SL       C 3501   2.587   2.719   3.267
  234SL       C 3502   2.579   2.604   3.169
  234SL       H 3503   2.690   2.885   2.990
  234SL       H 3504   2.527   2.906   3.061
  234SL       H 3505   2.672   2.920   3.256
  234SL       H 3506   2.777   2.791   3.194
  234SL       H 3507   2.487   2.760   3.287
  234SL       H 3508   2.629   2.687   3.363
  234SL       H 3509   2.491   2.541   3.186
  234SL       H 3510   2.669   2.543   3.172
  235SL       O 3511   0.924   3.992   0.770
  235SL       S 3512   1.058   3.982   0.823
  235SL       O 3513   1.092   4.031   0.955
  235SL       C 3514   1.112   3.813   0.809
  235SL       C 3515   1.245   3.820   0.734
  235SL       C 3516   1.229   3.931   0.631
  235SL       C 3517   1.172   4.050   0.705
  235SL       H 3518   1.121   3.768   0.908
  235SL       H 3519   1.037   3.758   0.750
  235SL       H 3520   1.270   3.724   0.688
  235SL       H 3521   1.326   3.845   0.804
  235SL       H 3522   1.159   3.898   0.552
  235SL       H 3523   1.324   3.955   0.582
  235SL       H 3524   1.120   4.120   0.639
  235SL       H 3525   1.251   4.102   0.761
  236SL       O 3526   1.934   1.321   1.479
  236SL       S 3527   2.035   1.374   1.568
  236SL       O 3528   2.008   1.486   1.656
  236SL       C 3529   2.101   1.239   1.664
  236SL       C 3530   2.252   1.247   1.643
  236SL       C 3531   2.273   1.288   1.498
  236SL       C 3532   2.183   1.408   1.475
  236SL       H 3533   2.072   1.250   1.769
  236SL       H 3534   2.061   1.146   1.624
  236SL       H 3535   2.300   1.151   1.666
  236SL       H 3536   2.295   1.323   1.710
  236SL       H 3537   2.244   1.205   1.432
  236SL       H 3538   2.378   1.312   1.477
  236SL       H 3539   2.158   1.422   1.369
  236SL       H 3540   2.228   1.499   1.515
  237SL       O 3541   1.959   1.200   3.145
  237SL       S 3542   2.039   1.245   3.033
  237SL       O 3543   2.063   1.386   3.008
  237SL       C 3544   2.196   1.160   3.038
  237SL       C 3545   2.211   1.098   2.899
  237SL       C 3546   2.071   1.052   2.858
  237SL       C 3547   1.979   1.169   2.883
  237SL       H 3548   2.276   1.230   3.061
  237SL       H 3549   2.190   1.083   3.114
  237SL       H 3550   2.282   1.015   2.900
  237SL       H 3551   2.247   1.173   2.828
  237SL       H 3552   2.041   0.966   2.920
  237SL       H 3553   2.068   1.020   2.753
  237SL       H 3554   1.875   1.139   2.897
  237SL       H 3555   1.987   1.243   2.803
  238SL       O 3556   0.421   3.040   1.930
  238SL       S 3557   0.311   2.998   1.846
  238SL       O 3558   0.229   2.883   1.879
  238SL       C 3559   0.205   3.138   1.817
  238SL       C 3560   0.191   3.147   1.666
  238SL       C 3561   0.328   3.110   1.608
  238SL       C 3562   0.368   2.982   1.678
  238SL       H 3563   0.108   3.124   1.867
  238SL       H 3564   0.254   3.227   1.857
  238SL       H 3565   0.160   3.248   1.634
  238SL       H 3566   0.115   3.076   1.630
  238SL       H 3567   0.400   3.190   1.631
  238SL       H 3568   0.325   3.098   1.500
  238SL       H 3569   0.476   2.965   1.678
  238SL       H 3570   0.318   2.895   1.634
  239SL       O 3571   3.163   1.701   1.443
  239SL       S 3572   3.044   1.738   1.369
  239SL       O 3573   3.033   1.715   1.226
  239SL       C 3574   2.903   1.666   1.451
  239SL       C 3575   2.808   1.783   1.474
  239SL       C 3576   2.895   1.903   1.509
  239SL       C 3577   3.004   1.908   1.404
  239SL       H 3578   2.859   1.588   1.388
  239SL       H 3579   2.936   1.623   1.545
  239SL       H 3580   2.736   1.760   1.554
  239SL       H 3581   2.751   1.804   1.383
  239SL       H 3582   2.940   1.887   1.609
  239SL       H 3583   2.838   1.996   1.513
  239SL       H 3584   3.093   1.961   1.437
  239SL       H 3585   2.966   1.952   1.311
  240SL       O 3586   3.734   2.581   1.758
  240SL       S 3587   3.655   2.623   1.872
  240SL       O 3588   3.580   2.747   1.872
  240SL       C 3589   3.546   2.489   1.917
  240SL       C 3590   3.573   2.465   2.066
  240SL       C 3591   3.723   2.486   2.086
  240SL       C 3592   3.757   2.617   2.018
  240SL       H 3593   3.443   2.516   1.897
  240SL       H 3594   3.574   2.401   1.858
  240SL       H 3595   3.542   2.365   2.097
  240SL       H 3596   3.518   2.538   2.126
  240SL       H 3597   3.778   2.403   2.037
  240SL       H 3598   3.751   2.487   2.191
  240SL       H 3599   3.862   2.624   1.990
  240SL       H 3600   3.729   2.702   2.081
  241SL       O 3601   2.078   2.381   1.155
  241SL       S 3602   2.192   2.358   1.069
  241SL       O 3603   2.312   2.439   1.078
  241SL       C 3604   2.238   2.186   1.080
  241SL       C 3605   2.241   2.137   0.936
  241SL       C 3606   2.126   2.207   0.864
  241SL       C 3607   2.138   2.354   0.900
  241SL       H 3608   2.335   2.176   1.130
  241SL       H 3609   2.161   2.134   1.137
  241SL       H 3610   2.232   2.028   0.931
  241SL       H 3611   2.336   2.165   0.889
  241SL       H 3612   2.030   2.167   0.902
  241SL       H 3613   2.129   2.191   0.757
  241SL       H 3614   2.044   2.408   0.890
  241SL       H 3615   2.215   2.402   0.839
  242SL       O 3616   1.481   3.004   3.294
  242SL       S 3617   1.342   3.032   3.322
  242SL       O 3618   1.295   3.166   3.354
  242SL       C 3619   1.243   2.968   3.189
  242SL       C 3620   1.139   2.878   3.256
  242SL       C 3621   1.211   2.810   3.372
  242SL       C 3622   1.283   2.920   3.447
  242SL       H 3623   1.198   3.049   3.132
  242SL       H 3624   1.308   2.909   3.123
  242SL       H 3625   1.097   2.806   3.185
  242SL       H 3626   1.056   2.939   3.294
  242SL       H 3627   1.283   2.737   3.332
  242SL       H 3628   1.141   2.756   3.437
  242SL       H 3629   1.368   2.883   3.506
  242SL       H 3630   1.214   2.975   3.512
  243SL       O 3631   1.650   3.636   0.608
  243SL       S 3632   1.718   3.591   0.489
  243SL       O 3633   1.649   3.578   0.362
  243SL       C 3634   1.863   3.691   0.465
  243SL       C 3635   1.978   3.592   0.452
  243SL       C 3636   1.947   3.478   0.550
  243SL       C 3637   1.803   3.439   0.524
  243SL       H 3638   1.852   3.754   0.376
  243SL       H 3639   1.876   3.754   0.553
  243SL       H 3640   2.075   3.639   0.474
  243SL       H 3641   1.982   3.552   0.350
  243SL       H 3642   1.958   3.516   0.653
  243SL       H 3643   2.015   3.394   0.538
  243SL       H 3644   1.756   3.390   0.610
  243SL       H 3645   1.795   3.375   0.436
  244SL       O 3646   1.012   3.216   3.318
  244SL       S 3647   0.910   3.119   3.348
  244SL       O 3648   0.924   3.024   3.456
  244SL       C 3649   0.754   3.205   3.366
  244SL       C 3650   0.659   3.134   3.271
  244SL       C 3651   0.741   3.098   3.147
  244SL       C 3652   0.867   3.031   3.199
  244SL       H 3653   0.721   3.201   3.470
  244SL       H 3654   0.769   3.309   3.336
  244SL       H 3655   0.573   3.198   3.245
  244SL       H 3656   0.620   3.043   3.318
  244SL       H 3657   0.766   3.190   3.092
  244SL       H 3658   0.686   3.033   3.079
  244SL       H 3659   0.950   3.036   3.128
  244SL       H 3660   0.848   2.927   3.226
  245SL       O 3661   2.766   1.229   3.138
  245SL       S 3662   2.736   1.089   3.163
  245SL       O 3663   2.836   0.986   3.145
  245SL       C 3664   2.664   1.074   3.325
  245SL       C 3665   2.533   0.999   3.303
  245SL       C 3666   2.476   1.051   3.171
  245SL       C 3667   2.590   1.044   3.071
  245SL       H 3668   2.732   1.021   3.392
  245SL       H 3669   2.645   1.175   3.363
  245SL       H 3670   2.463   1.015   3.386
  245SL       H 3671   2.552   0.891   3.295
  245SL       H 3672   2.442   1.155   3.184
  245SL       H 3673   2.390   0.992   3.137
  245SL       H 3674   2.577   1.113   2.987
  245SL       H 3675   2.604   0.942   3.034
  246SL       O 3676   0.593   1.878   1.533
  246SL       S 3677   0.546   1.803   1.419
  246SL       O 3678   0.634   1.720   1.339
  246SL       C 3679   0.405   1.706   1.469
  246SL       C 3680   0.294   1.743   1.370
  246SL       C 3681   0.310   1.892   1.341
  246SL       C 3682   0.457   1.913   1.310
  246SL       H 3683   0.429   1.600   1.467
  246SL       H 3684   0.377   1.736   1.570
  246SL       H 3685   0.195   1.720   1.410
  246SL       H 3686   0.307   1.686   1.277
  246SL       H 3687   0.282   1.949   1.431
  246SL       H 3688   0.246   1.926   1.260
  246SL       H 3689   0.490   2.016   1.327
  246SL       H 3690   0.479   1.883   1.207
  247SL       O 3691   2.554   1.775   3.037
  247SL       S 3692   2.614   1.644   3.029
  247SL       O 3693   2.756   1.626   3.005
  247SL       C 3694   2.568   1.552   3.175
  247SL       C 3695   2.508   1.422   3.122
  247SL       C 3696   2.430   1.459   2.996
  247SL       C 3697   2.523   1.544   2.913
  247SL       H 3698   2.656   1.535   3.238
  247SL       H 3699   2.493   1.610   3.230
  247SL       H 3700   2.444   1.374   3.197
  247SL       H 3701   2.588   1.352   3.096
  247SL       H 3702   2.341   1.518   3.025
  247SL       H 3703   2.396   1.371   2.942
  247SL       H 3704   2.470   1.609   2.843
  247SL       H 3705   2.595   1.482   2.859
  248SL       O 3706   2.517   2.973   2.647
  248SL       S 3707   2.428   3.039   2.555
  248SL       O 3708   2.430   3.011   2.413
  248SL       C 3709   2.261   3.021   2.615
  248SL       C 3710   2.205   3.163   2.621
  248SL       C 3711   2.321   3.252   2.667
  248SL       C 3712   2.439   3.215   2.579
  248SL       H 3713   2.203   2.956   2.548
  248SL       H 3714   2.265   2.976   2.715
  248SL       H 3715   2.120   3.169   2.689
  248SL       H 3716   2.171   3.194   2.522
  248SL       H 3717   2.344   3.230   2.773
  248SL       H 3718   2.296   3.358   2.659
  248SL       H 3719   2.535   3.240   2.625
  248SL       H 3720   2.431   3.263   2.481
  249SL       O 3721   3.044   0.991   3.867
  249SL       S 3722   3.188   0.983   3.860
  249SL       O 3723   3.271   1.001   3.977
  249SL       C 3724   3.232   0.830   3.780
  249SL       C 3725   3.324   0.871   3.665
  249SL       C 3726   3.269   1.002   3.610
  249SL       C 3727   3.246   1.091   3.730
  249SL       H 3728   3.281   0.763   3.851
  249SL       H 3729   3.141   0.784   3.741
  249SL       H 3730   3.329   0.793   3.588
  249SL       H 3731   3.426   0.887   3.703
  249SL       H 3732   3.173   0.982   3.559
  249SL       H 3733   3.336   1.048   3.538
  249SL       H 3734   3.171   1.169   3.712
  249SL       H 3735   3.339   1.136   3.764
  250SL       O 3736   3.581   2.147   3.533
  250SL       S 3737   3.479   2.226   3.597
  250SL       O 3738   3.338   2.200   3.578
  250SL       C 3739   3.513   2.231   3.772
  250SL       C 3740   3.516   2.379   3.808
  250SL       C 3741   3.581   2.450   3.689
  250SL       C 3742   3.510   2.398   3.566
  250SL       H 3743   3.436   2.176   3.827
  250SL       H 3744   3.611   2.185   3.789
  250SL       H 3745   3.571   2.397   3.901
  250SL       H 3746   3.413   2.417   3.821
  250SL       H 3747   3.688   2.424   3.686
  250SL       H 3748   3.573   2.559   3.697
  250SL       H 3749   3.570   2.409   3.475
  250SL       H 3750   3.414   2.448   3.552
  251SL       O 3751   2.516   1.727   0.286
  251SL       S 3752   2.381   1.701   0.331
  251SL       O 3753   2.312   1.790   0.423
  251SL       C 3754   2.278   1.675   0.188
  251SL       C 3755   2.209   1.541   0.213
  251SL       C 3756   2.313   1.452   0.281
  251SL       C 3757   2.371   1.535   0.394
  251SL       H 3758   2.207   1.757   0.177
  251SL       H 3759   2.343   1.670   0.100
  251SL       H 3760   2.173   1.496   0.119
  251SL       H 3761   2.123   1.555   0.279
  251SL       H 3762   2.392   1.426   0.209
  251SL       H 3763   2.269   1.359   0.318
  251SL       H 3764   2.470   1.501   0.425
  251SL       H 3765   2.304   1.536   0.481
  252SL       O 3766   2.412   1.834   0.833
  252SL       S 3767   2.281   1.775   0.820
  252SL       O 3768   2.161   1.856   0.813
  252SL       C 3769   2.283   1.662   0.682
  252SL       C 3770   2.232   1.530   0.739
  252SL       C 3771   2.289   1.519   0.880
  252SL       C 3772   2.260   1.652   0.947
  252SL       H 3773   2.221   1.700   0.601
  252SL       H 3774   2.387   1.652   0.648
  252SL       H 3775   2.262   1.445   0.677
  252SL       H 3776   2.122   1.531   0.743
  252SL       H 3777   2.398   1.503   0.874
  252SL       H 3778   2.245   1.436   0.936
  252SL       H 3779   2.327   1.673   1.031
  252SL       H 3780   2.156   1.657   0.981
  253SL       O 3781   0.356   2.947   2.548
  253SL       S 3782   0.299   2.876   2.659
  253SL       O 3783   0.162   2.898   2.703
  253SL       C 3784   0.324   2.701   2.634
  253SL       C 3785   0.392   2.652   2.761
  253SL       C 3786   0.487   2.763   2.804
  253SL       C 3787   0.407   2.891   2.800
  253SL       H 3788   0.228   2.652   2.615
  253SL       H 3789   0.389   2.688   2.547
  253SL       H 3790   0.445   2.557   2.744
  253SL       H 3791   0.317   2.635   2.840
  253SL       H 3792   0.571   2.769   2.732
  253SL       H 3793   0.530   2.744   2.903
  253SL       H 3794   0.469   2.980   2.790
  253SL       H 3795   0.344   2.900   2.890
  254SL       O 3796   0.974   2.137   0.418
  254SL       S 3797   0.983   2.258   0.341
  254SL       O 3798   1.110   2.307   0.290
  254SL       C 3799   0.867   2.248   0.206
  254SL       C 3800   0.783   2.375   0.216
  254SL       C 3801   0.764   2.401   0.366
  254SL       C 3802   0.901   2.390   0.428
  254SL       H 3803   0.920   2.241   0.111
  254SL       H 3804   0.805   2.159   0.221
  254SL       H 3805   0.687   2.364   0.165
  254SL       H 3806   0.837   2.460   0.171
  254SL       H 3807   0.697   2.324   0.408
  254SL       H 3808   0.718   2.498   0.385
  254SL       H 3809   0.898   2.366   0.535
  254SL       H 3810   0.959   2.481   0.412
  255SL       O 3811   1.368   3.578   3.317
  255SL       S 3812   1.341   3.567   3.176
  255SL       O 3813   1.369   3.675   3.083
  255SL       C 3814   1.416   3.417   3.115
  255SL       C 3815   1.304   3.341   3.046
  255SL       C 3816   1.178   3.365   3.130
  255SL       C 3817   1.172   3.514   3.153
  255SL       H 3818   1.499   3.441   3.048
  255SL       H 3819   1.454   3.361   3.201
  255SL       H 3820   1.327   3.234   3.037
  255SL       H 3821   1.288   3.381   2.945
  255SL       H 3822   1.188   3.312   3.226
  255SL       H 3823   1.088   3.328   3.080
  255SL       H 3824   1.113   3.541   3.242
  255SL       H 3825   1.132   3.566   3.065
  256SL       O 3826   0.433   0.381   1.678
  256SL       S 3827   0.342   0.489   1.648
  256SL       O 3828   0.207   0.493   1.700
  256SL       C 3829   0.423   0.643   1.689
  256SL       C 3830   0.413   0.727   1.562
  256SL       C 3831   0.431   0.630   1.445
  256SL       C 3832   0.337   0.515   1.472
  256SL       H 3833   0.374   0.690   1.774
  256SL       H 3834   0.527   0.622   1.713
  256SL       H 3835   0.489   0.807   1.560
  256SL       H 3836   0.314   0.775   1.555
  256SL       H 3837   0.536   0.595   1.443
  256SL       H 3838   0.410   0.678   1.349
  256SL       H 3839   0.367   0.423   1.421
  256SL       H 3840   0.235   0.540   1.445
  257SL       O 3841   2.093   1.422   3.492
  257SL       S 3842   2.054   1.331   3.387
  257SL       O 3843   2.043   1.374   3.249
  257SL       C 3844   2.158   1.187   3.395
  257SL       C 3845   2.062   1.069   3.402
  257SL       C 3846   1.944   1.115   3.488
  257SL       C 3847   1.903   1.250   3.434
  257SL       H 3848   2.224   1.183   3.307
  257SL       H 3849   2.218   1.193   3.486
  257SL       H 3850   2.110   0.980   3.443
  257SL       H 3851   2.026   1.044   3.301
  257SL       H 3852   1.978   1.125   3.593
  257SL       H 3853   1.862   1.043   3.487
  257SL       H 3854   1.849   1.311   3.508
  257SL       H 3855   1.842   1.238   3.344
  258SL       O 3856   2.809   1.816   3.235
  258SL       S 3857   2.850   1.698   3.309
  258SL       O 3858   2.882   1.573   3.242
  258SL       C 3859   2.986   1.743   3.415
  258SL       C 3860   2.943   1.698   3.555
  258SL       C 3861   2.793   1.725   3.564
  258SL       C 3862   2.732   1.667   3.438
  258SL       H 3863   3.078   1.694   3.382
  258SL       H 3864   2.998   1.852   3.412
  258SL       H 3865   2.999   1.751   3.633
  258SL       H 3866   2.962   1.590   3.567
  258SL       H 3867   2.776   1.834   3.567
  258SL       H 3868   2.749   1.682   3.654
  258SL       H 3869   2.636   1.712   3.413
  258SL       H 3870   2.721   1.558   3.447
  259SL       O 3871   3.181   0.363   2.143
  259SL       S 3872   3.069   0.319   2.222
  259SL       O 3873   3.073   0.315   2.367
  259SL       C 3874   2.924   0.410   2.171
  259SL       C 3875   2.820   0.304   2.137
  259SL       C 3876   2.896   0.188   2.072
  259SL       C 3877   3.014   0.160   2.162
  259SL       H 3878   2.892   0.477   2.251
  259SL       H 3879   2.950   0.468   2.082
  259SL       H 3880   2.742   0.343   2.071
  259SL       H 3881   2.772   0.268   2.229
  259SL       H 3882   2.931   0.220   1.972
  259SL       H 3883   2.833   0.100   2.058
  259SL       H 3884   3.097   0.110   2.110
  259SL       H 3885   2.984   0.100   2.249
  260SL       O 3886   3.518   0.516   3.739
  260SL       S 3887   3.598   0.546   3.856
  260SL       O 3888   3.566   0.657   3.943
  260SL       C 3889   3.615   0.398   3.953
  260SL       C 3890   3.765   0.381   3.973
  260SL       C 3891   3.831   0.425   3.842
  260SL       C 3892   3.769   0.558   3.807
  260SL       H 3893   3.561   0.409   4.048
  260SL       H 3894   3.573   0.315   3.896
  260SL       H 3895   3.790   0.277   3.999
  260SL       H 3896   3.800   0.445   4.055
  260SL       H 3897   3.808   0.350   3.764
  260SL       H 3898   3.939   0.431   3.851
  260SL       H 3899   3.776   0.582   3.701
  260SL       H 3900   3.814   0.639   3.866
  261SL       O 3901   0.697   1.699   2.426
  261SL       S 3902   0.715   1.570   2.365
  261SL       O 3903   0.657   1.450   2.421
  261SL       C 3904   0.668   1.581   2.193
  261SL       C 3905   0.788   1.528   2.116
  261SL       C 3906   0.912   1.576   2.191
  261SL       C 3907   0.889   1.542   2.336
  261SL       H 3908   0.577   1.523   2.175
  261SL       H 3909   0.651   1.687   2.170
  261SL       H 3910   0.788   1.563   2.012
  261SL       H 3911   0.786   1.418   2.114
  261SL       H 3912   0.922   1.685   2.179
  261SL       H 3913   1.004   1.530   2.153
  261SL       H 3914   0.948   1.604   2.405
  261SL       H 3915   0.909   1.436   2.356
  262SL       O 3916   3.737   1.036   1.493
  262SL       S 3917   3.672   0.946   1.585
  262SL       O 3918   3.744   0.882   1.693
  262SL       C 3919   3.528   1.026   1.651
  262SL       C 3920   3.413   0.929   1.625
  262SL       C 3921   3.440   0.866   1.489
  262SL       C 3922   3.585   0.821   1.492
  262SL       H 3923   3.542   1.047   1.758
  262SL       H 3924   3.512   1.120   1.597
  262SL       H 3925   3.316   0.980   1.627
  262SL       H 3926   3.411   0.851   1.702
  262SL       H 3927   3.426   0.942   1.410
  262SL       H 3928   3.373   0.783   1.467
  262SL       H 3929   3.629   0.811   1.392
  262SL       H 3930   3.595   0.726   1.546
  263SL       O 3931   2.252   2.957   0.801
  263SL       S 3932   2.133   2.954   0.884
  263SL       O 3933   2.131   3.012   1.016
  263SL       C 3934   1.997   3.021   0.789
  263SL       C 3935   1.888   2.914   0.797
  263SL       C 3936   1.960   2.779   0.791
  263SL       C 3937   2.072   2.787   0.893
  263SL       H 3938   1.966   3.117   0.831
  263SL       H 3939   2.031   3.034   0.686
  263SL       H 3940   1.816   2.925   0.716
  263SL       H 3941   1.834   2.923   0.892
  263SL       H 3942   2.001   2.764   0.690
  263SL       H 3943   1.893   2.696   0.812
  263SL       H 3944   2.153   2.717   0.872
  263SL       H 3945   2.034   2.771   0.994
  264SL       O 3946   3.746   0.829   0.933
  264SL       S 3947   3.698   0.936   0.849
  264SL       O 3948   3.615   0.911   0.732
  264SL       C 3949   3.617   1.057   0.952
  264SL       C 3950   3.684   1.189   0.918
  264SL       C 3951   3.832   1.158   0.895
  264SL       C 3952   3.835   1.039   0.801
  264SL       H 3953   3.509   1.058   0.932
  264SL       H 3954   3.635   1.030   1.056
  264SL       H 3955   3.670   1.263   0.998
  264SL       H 3956   3.640   1.231   0.826
  264SL       H 3957   3.878   1.131   0.991
  264SL       H 3958   3.886   1.243   0.855
  264SL       H 3959   3.928   0.982   0.807
  264SL       H 3960   3.818   1.071   0.697
  265SL       O 3961   3.398   3.373   3.725
  265SL       S 3962   3.459   3.435   3.840
  265SL       O 3963   3.392   3.440   3.969
  265SL       C 3964   3.622   3.367   3.863
  265SL       C 3965   3.715   3.487   3.869
  265SL       C 3966   3.660   3.588   3.768
  265SL       C 3967   3.512   3.600   3.797
  265SL       H 3968   3.625   3.306   3.954
  265SL       H 3969   3.645   3.304   3.776
  265SL       H 3970   3.818   3.459   3.845
  265SL       H 3971   3.714   3.531   3.969
  265SL       H 3972   3.676   3.550   3.666
  265SL       H 3973   3.710   3.685   3.775
  265SL       H 3974   3.454   3.636   3.711
  265SL       H 3975   3.494   3.665   3.883
  266SL       O 3976   2.319   2.565   0.732
  266SL       S 3977   2.385   2.516   0.613
  266SL       O 3978   2.496   2.587   0.553
  266SL       C 3979   2.432   2.346   0.641
  266SL       C 3980   2.373   2.269   0.523
  266SL       C 3981   2.238   2.334   0.494
  266SL       C 3982   2.263   2.483   0.488
  266SL       H 3983   2.541   2.338   0.646
  266SL       H 3984   2.388   2.313   0.735
  266SL       H 3985   2.363   2.163   0.546
  266SL       H 3986   2.438   2.279   0.435
  266SL       H 3987   2.168   2.311   0.576
  266SL       H 3988   2.193   2.297   0.402
  266SL       H 3989   2.173   2.542   0.507
  266SL       H 3990   2.306   2.511   0.391
  267SL       O 3991   3.092   4.122   3.577
  267SL       S 3992   2.992   4.024   3.542
  267SL       O 3993   2.930   4.022   3.411
  267SL       C 3994   3.055   3.862   3.579
  267SL       C 3995   2.949   3.797   3.668
  267SL       C 3996   2.896   3.909   3.758
  267SL       C 3997   2.864   4.025   3.666
  267SL       H 3998   3.073   3.806   3.486
  267SL       H 3999   3.150   3.874   3.633
  267SL       H 4000   2.991   3.715   3.726
  267SL       H 4001   2.868   3.757   3.606
  267SL       H 4002   2.974   3.938   3.830
  267SL       H 4003   2.808   3.877   3.814
  267SL       H 4004   2.863   4.121   3.717
  267SL       H 4005   2.768   4.009   3.615
  268SL       O 4006   1.740   0.441   0.705
  268SL       S 4007   1.650   0.328   0.693
  268SL       O 4008   1.574   0.278   0.806
  268SL       C 4009   1.539   0.359   0.557
  268SL       C 4010   1.551   0.237   0.467
  268SL       C 4011   1.698   0.196   0.471
  268SL       C 4012   1.737   0.192   0.617
  268SL       H 4013   1.437   0.374   0.595
  268SL       H 4014   1.572   0.449   0.505
  268SL       H 4015   1.518   0.258   0.365
  268SL       H 4016   1.489   0.155   0.506
  268SL       H 4017   1.758   0.272   0.417
  268SL       H 4018   1.716   0.100   0.422
  268SL       H 4019   1.845   0.204   0.633
  268SL       H 4020   1.703   0.100   0.664
  269SL       O 4021   1.282   3.497   2.393
  269SL       S 4022   1.176   3.420   2.454
  269SL       O 4023   1.157   3.279   2.423
  269SL       C 4024   1.184   3.441   2.630
  269SL       C 4025   1.044   3.486   2.671
  269SL       C 4026   0.995   3.578   2.560
  269SL       C 4027   1.021   3.505   2.430
  269SL       H 4028   1.214   3.347   2.678
  269SL       H 4029   1.258   3.518   2.652
  269SL       H 4030   1.046   3.536   2.769
  269SL       H 4031   0.978   3.399   2.679
  269SL       H 4032   1.053   3.672   2.563
  269SL       H 4033   0.890   3.604   2.572
  269SL       H 4034   1.029   3.572   2.344
  269SL       H 4035   0.944   3.430   2.412
  270SL       O 4036   0.824   0.499   0.422
  270SL       S 4037   0.838   0.599   0.319
  270SL       O 4038   0.860   0.564   0.180
  270SL       C 4039   0.701   0.712   0.330
  270SL       C 4040   0.764   0.851   0.340
  270SL       C 4041   0.889   0.834   0.426
  270SL       C 4042   0.964   0.716   0.369
  270SL       H 4043   0.636   0.702   0.243
  270SL       H 4044   0.645   0.688   0.421
  270SL       H 4045   0.695   0.923   0.384
  270SL       H 4046   0.793   0.886   0.241
  270SL       H 4047   0.860   0.813   0.531
  270SL       H 4048   0.951   0.924   0.427
  270SL       H 4049   1.031   0.668   0.441
  270SL       H 4050   1.020   0.744   0.280
  271SL       O 4051   2.306   2.924   2.928
  271SL       S 4052   2.180   2.909   2.997
  271SL       O 4053   2.102   3.024   3.039
  271SL       C 4054   2.076   2.800   2.902
  271SL       C 4055   2.032   2.692   3.000
  271SL       C 4056   2.153   2.665   3.090
  271SL       C 4057   2.202   2.800   3.136
  271SL       H 4058   1.991   2.856   2.860
  271SL       H 4059   2.136   2.758   2.821
  271SL       H 4060   2.000   2.601   2.948
  271SL       H 4061   1.949   2.727   3.061
  271SL       H 4062   2.232   2.614   3.031
  271SL       H 4063   2.128   2.600   3.174
  271SL       H 4064   2.307   2.800   3.167
  271SL       H 4065   2.140   2.838   3.218
  272SL       O 4066   1.411   2.150   3.440
  272SL       S 4067   1.311   2.238   3.496
  272SL       O 4068   1.309   2.271   3.638
  272SL       C 4069   1.310   2.390   3.402
  272SL       C 4070   1.164   2.409   3.360
  272SL       C 4071   1.110   2.269   3.330
  272SL       C 4072   1.149   2.183   3.448
  272SL       H 4073   1.347   2.472   3.463
  272SL       H 4074   1.374   2.376   3.314
  272SL       H 4075   1.156   2.475   3.273
  272SL       H 4076   1.107   2.453   3.443
  272SL       H 4077   1.157   2.231   3.237
  272SL       H 4078   1.002   2.270   3.314
  272SL       H 4079   1.153   2.076   3.423
  272SL       H 4080   1.081   2.199   3.532
  273SL       O 4081   2.068   0.360   1.069
  273SL       S 4082   2.016   0.494   1.071
  273SL       O 4083   2.023   0.581   0.954
  273SL       C 4084   1.847   0.489   1.128
  273SL       C 4085   1.841   0.588   1.244
  273SL       C 4086   1.974   0.575   1.318
  273SL       C 4087   2.082   0.582   1.212
  273SL       H 4088   1.779   0.515   1.047
  273SL       H 4089   1.826   0.387   1.163
  273SL       H 4090   1.756   0.567   1.310
  273SL       H 4091   1.830   0.690   1.205
  273SL       H 4092   1.977   0.477   1.369
  273SL       H 4093   1.987   0.653   1.393
  273SL       H 4094   2.176   0.535   1.243
  273SL       H 4095   2.100   0.685   1.181
  274SL       O 4096   3.035   0.710   0.709
  274SL       S 4097   2.892   0.731   0.706
  274SL       O 4098   2.798   0.621   0.710
  274SL       C 4099   2.849   0.848   0.834
  274SL       C 4100   2.770   0.958   0.762
  274SL       C 4101   2.837   0.976   0.626
  274SL       C 4102   2.852   0.837   0.568
  274SL       H 4103   2.791   0.799   0.912
  274SL       H 4104   2.942   0.888   0.876
  274SL       H 4105   2.770   1.051   0.820
  274SL       H 4106   2.666   0.926   0.749
  274SL       H 4107   2.936   1.022   0.640
  274SL       H 4108   2.779   1.041   0.560
  274SL       H 4109   2.931   0.830   0.493
  274SL       H 4110   2.757   0.802   0.526
  275SL       O 4111   1.721   2.873   1.077
  275SL       S 4112   1.838   2.862   1.162
  275SL       O 4113   1.962   2.929   1.130
  275SL       C 4114   1.791   2.903   1.329
  275SL       C 4115   1.837   2.785   1.413
  275SL       C 4116   1.813   2.660   1.328
  275SL       C 4117   1.872   2.690   1.192
  275SL       H 4118   1.838   2.997   1.359
  275SL       H 4119   1.682   2.913   1.332
  275SL       H 4120   1.784   2.780   1.508
  275SL       H 4121   1.945   2.794   1.435
  275SL       H 4122   1.704   2.643   1.320
  275SL       H 4123   1.857   2.571   1.373
  275SL       H 4124   1.828   2.629   1.113
  275SL       H 4125   1.981   2.677   1.193
  276SL       O 4126   2.269   3.673   1.878
  276SL       S 4127   2.216   3.804   1.848
  276SL       O 4128   2.286   3.896   1.761
  276SL       C 4129   2.048   3.785   1.791
  276SL       C 4130   1.966   3.878   1.879
  276SL       C 4131   2.027   3.869   2.019
  276SL       C 4132   2.176   3.887   2.001
  276SL       H 4133   2.042   3.812   1.685
  276SL       H 4134   2.018   3.681   1.805
  276SL       H 4135   1.860   3.849   1.880
  276SL       H 4136   1.973   3.981   1.843
  276SL       H 4137   2.006   3.769   2.061
  276SL       H 4138   1.985   3.943   2.087
  276SL       H 4139   2.235   3.844   2.082
  276SL       H 4140   2.201   3.993   1.988
  277SL       O 4141   3.886   1.889   3.415
  277SL       S 4142   3.899   1.753   3.367
  277SL       O 4143   4.024   1.680   3.376
  277SL       C 4144   3.769   1.655   3.441
  277SL       C 4145   3.699   1.588   3.323
  277SL       C 4146   3.697   1.691   3.210
  277SL       C 4147   3.839   1.744   3.200
  277SL       H 4148   3.812   1.583   3.511
  277SL       H 4149   3.701   1.722   3.493
  277SL       H 4150   3.598   1.556   3.350
  277SL       H 4151   3.755   1.499   3.291
  277SL       H 4152   3.628   1.773   3.237
  277SL       H 4153   3.663   1.648   3.116
  277SL       H 4154   3.844   1.843   3.153
  277SL       H 4155   3.903   1.674   3.145
  278SL       O 4156   3.972   0.896   1.454
  278SL       S 4157   3.908   0.884   1.325
  278SL       O 4158   3.778   0.943   1.298
  278SL       C 4159   4.023   0.936   1.199
  278SL       C 4160   4.028   0.820   1.100
  278SL       C 4161   4.021   0.693   1.184
  278SL       C 4162   3.904   0.712   1.278
  278SL       H 4163   3.988   1.029   1.153
  278SL       H 4164   4.120   0.952   1.246
  278SL       H 4165   4.120   0.824   1.040
  278SL       H 4166   3.943   0.825   1.031
  278SL       H 4167   4.114   0.681   1.241
  278SL       H 4168   4.008   0.604   1.122
  278SL       H 4169   3.911   0.649   1.367
  278SL       H 4170   3.809   0.693   1.227
  279SL       O 4171   0.645   0.999   1.111
  279SL       S 4172   0.709   1.036   0.987
  279SL       O 4173   0.694   1.168   0.929
  279SL       C 4174   0.882   0.997   0.999
  279SL       C 4175   0.912   0.910   0.877
  279SL       C 4176   0.789   0.821   0.858
  279SL       C 4177   0.669   0.913   0.863
  279SL       H 4178   0.941   1.089   1.000
  279SL       H 4179   0.899   0.942   1.092
  279SL       H 4180   1.003   0.850   0.892
  279SL       H 4181   0.926   0.972   0.788
  279SL       H 4182   0.784   0.748   0.940
  279SL       H 4183   0.793   0.765   0.764
  279SL       H 4184   0.577   0.862   0.891
  279SL       H 4185   0.656   0.966   0.768
  280SL       O 4186   2.850   3.895   2.096
  280SL       S 4187   2.957   3.908   2.191
  280SL       O 4188   2.935   3.954   2.326
  280SL       C 4189   3.047   3.755   2.196
  280SL       C 4190   3.193   3.793   2.171
  280SL       C 4191   3.190   3.906   2.068
  280SL       C 4192   3.088   4.006   2.118
  280SL       H 4193   3.033   3.706   2.293
  280SL       H 4194   3.010   3.690   2.116
  280SL       H 4195   3.251   3.708   2.136
  280SL       H 4196   3.239   3.829   2.264
  280SL       H 4197   3.158   3.865   1.970
  280SL       H 4198   3.288   3.952   2.054
  280SL       H 4199   3.047   4.069   2.038
  280SL       H 4200   3.130   4.069   2.197
  281SL       O 4201   3.263   1.401   2.182
  281SL       S 4202   3.388   1.333   2.162
  281SL       O 4203   3.478   1.367   2.053
  281SL       C 4204   3.479   1.334   2.315
  281SL       C 4205   3.514   1.188   2.342
  281SL       C 4206   3.392   1.107   2.297
  281SL       C 4207   3.358   1.157   2.158
  281SL       H 4208   3.568   1.397   2.305
  281SL       H 4209   3.414   1.374   2.393
  281SL       H 4210   3.536   1.171   2.448
  281SL       H 4211   3.602   1.159   2.284
  281SL       H 4212   3.308   1.125   2.366
  281SL       H 4213   3.413   1.000   2.297
  281SL       H 4214   3.254   1.138   2.130
  281SL       H 4215   3.425   1.113   2.083
  282SL       O 4216   2.690   3.729   0.319
  282SL       S 4217   2.568   3.709   0.244
  282SL       O 4218   2.564   3.723   0.100
  282SL       C 4219   2.500   3.550   0.289
  282SL       C 4220   2.356   3.579   0.330
  282SL       C 4221   2.359   3.713   0.404
  282SL       C 4222   2.438   3.808   0.316
  282SL       H 4223   2.506   3.482   0.204
  282SL       H 4224   2.557   3.511   0.373
  282SL       H 4225   2.315   3.499   0.393
  282SL       H 4226   2.292   3.588   0.242
  282SL       H 4227   2.410   3.700   0.501
  282SL       H 4228   2.259   3.751   0.425
  282SL       H 4229   2.482   3.891   0.372
  282SL       H 4230   2.376   3.846   0.234
  283SL       O 4231   0.953   3.464   2.965
  283SL       S 4232   0.893   3.529   3.079
  283SL       O 4233   0.905   3.475   3.213
  283SL       C 4234   0.943   3.700   3.080
  283SL       C 4235   0.813   3.779   3.087
  283SL       C 4236   0.712   3.703   3.000
  283SL       C 4237   0.720   3.559   3.044
  283SL       H 4238   1.009   3.719   3.165
  283SL       H 4239   0.996   3.720   2.986
  283SL       H 4240   0.827   3.882   3.051
  283SL       H 4241   0.777   3.784   3.190
  283SL       H 4242   0.741   3.713   2.894
  283SL       H 4243   0.611   3.743   3.011
  283SL       H 4244   0.685   3.489   2.968
  283SL       H 4245   0.665   3.543   3.137
  284SL       O 4246   0.521   0.434   1.258
  284SL       S 4247   0.463   0.393   1.133
  284SL       O 4248   0.529   0.418   1.006
  284SL       C 4249   0.422   0.219   1.144
  284SL       C 4250   0.275   0.211   1.104
  284SL       C 4251   0.208   0.335   1.163
  284SL       C 4252   0.295   0.452   1.123
  284SL       H 4253   0.487   0.161   1.077
  284SL       H 4254   0.437   0.187   1.247
  284SL       H 4255   0.229   0.118   1.142
  284SL       H 4256   0.265   0.212   0.995
  284SL       H 4257   0.204   0.326   1.273
  284SL       H 4258   0.105   0.347   1.128
  284SL       H 4259   0.283   0.538   1.189
  284SL       H 4260   0.276   0.481   1.020
  285SL       O 4261   3.681   4.089   1.662
  285SL       S 4262   3.614   3.966   1.629
  285SL       O 4263   3.673   3.836   1.656
  285SL       C 4264   3.450   3.970   1.698
  285SL       C 4265   3.357   3.941   1.580
  285SL       C 4266   3.418   4.011   1.459
  285SL       C 4267   3.564   3.971   1.458
  285SL       H 4268   3.440   3.897   1.778
  285SL       H 4269   3.432   4.071   1.737
  285SL       H 4270   3.255   3.977   1.600
  285SL       H 4271   3.352   3.833   1.562
  285SL       H 4272   3.408   4.120   1.471
  285SL       H 4273   3.368   3.983   1.366
  285SL       H 4274   3.627   4.042   1.403
  285SL       H 4275   3.577   3.871   1.416
  286SL       O 4276   1.985   3.312   2.588
  286SL       S 4277   1.983   3.452   2.622
  286SL       O 4278   1.961   3.498   2.757
  286SL       C 4279   2.132   3.528   2.559
  286SL       C 4280   2.085   3.646   2.475
  286SL       C 4281   1.957   3.599   2.405
  286SL       C 4282   1.871   3.537   2.513
  286SL       H 4283   2.197   3.558   2.642
  286SL       H 4284   2.184   3.454   2.497
  286SL       H 4285   2.161   3.677   2.403
  286SL       H 4286   2.062   3.731   2.540
  286SL       H 4287   1.982   3.524   2.329
  286SL       H 4288   1.906   3.681   2.355
  286SL       H 4289   1.797   3.466   2.473
  286SL       H 4290   1.820   3.614   2.572
  287SL       O 4291   1.334   0.546   3.677
  287SL       S 4292   1.207   0.493   3.633
  287SL       O 4293   1.159   0.362   3.675
  287SL       C 4294   1.080   0.614   3.667
  287SL       C 4295   1.009   0.635   3.534
  287SL       C 4296   1.117   0.628   3.426
  287SL       C 4297   1.197   0.503   3.455
  287SL       H 4298   1.013   0.578   3.746
  287SL       H 4299   1.129   0.706   3.699
  287SL       H 4300   0.955   0.731   3.532
  287SL       H 4301   0.935   0.555   3.518
  287SL       H 4302   1.181   0.717   3.433
  287SL       H 4303   1.074   0.626   3.326
  287SL       H 4304   1.298   0.506   3.413
  287SL       H 4305   1.145   0.413   3.420
  288SL       O 4306   1.993   2.771   1.707
  288SL       S 4307   2.011   2.858   1.821
  288SL       O 4308   1.974   2.818   1.955
  288SL       C 4309   2.179   2.916   1.822
  288SL       C 4310   2.169   3.068   1.829
  288SL       C 4311   2.049   3.107   1.742
  288SL       C 4312   1.936   3.016   1.786
  288SL       H 4313   2.233   2.874   1.907
  288SL       H 4314   2.227   2.885   1.728
  288SL       H 4315   2.261   3.116   1.793
  288SL       H 4316   2.152   3.100   1.932
  288SL       H 4317   2.073   3.088   1.636
  288SL       H 4318   2.023   3.212   1.753
  288SL       H 4319   1.858   3.004   1.710
  288SL       H 4320   1.890   3.053   1.879
  289SL       O 4321   1.303   2.710   1.137
  289SL       S 4322   1.388   2.603   1.091
  289SL       O 4323   1.377   2.469   1.144
  289SL       C 4324   1.379   2.596   0.913
  289SL       C 4325   1.524   2.602   0.866
  289SL       C 4326   1.595   2.698   0.960
  289SL       C 4327   1.558   2.655   1.100
  289SL       H 4328   1.328   2.504   0.882
  289SL       H 4329   1.323   2.683   0.878
  289SL       H 4330   1.531   2.634   0.762
  289SL       H 4331   1.570   2.502   0.873
  289SL       H 4332   1.559   2.801   0.941
  289SL       H 4333   1.703   2.698   0.945
  289SL       H 4334   1.568   2.735   1.174
  289SL       H 4335   1.618   2.568   1.132
  290SL       O 4336   1.569   1.177   0.285
  290SL       S 4337   1.446   1.131   0.225
  290SL       O 4338   1.394   1.189   0.103
  290SL       C 4339   1.455   0.954   0.205
  290SL       C 4340   1.330   0.900   0.273
  290SL       C 4341   1.308   0.987   0.397
  290SL       C 4342   1.318   1.130   0.348
  290SL       H 4343   1.460   0.928   0.099
  290SL       H 4344   1.546   0.918   0.256
  290SL       H 4345   1.342   0.794   0.301
  290SL       H 4346   1.244   0.908   0.206
  290SL       H 4347   1.387   0.967   0.471
  290SL       H 4348   1.211   0.967   0.444
  290SL       H 4349   1.343   1.201   0.428
  290SL       H 4350   1.225   1.162   0.300
  291SL       O 4351   1.546   3.194   3.049
  291SL       S 4352   1.690   3.197   3.039
  291SL       O 4353   1.768   3.077   3.012
  291SL       C 4354   1.736   3.324   2.923
  291SL       C 4355   1.835   3.412   2.998
  291SL       C 4356   1.785   3.420   3.142
  291SL       C 4357   1.757   3.277   3.184
  291SL       H 4358   1.780   3.278   2.833
  291SL       H 4359   1.646   3.380   2.896
  291SL       H 4360   1.843   3.511   2.952
  291SL       H 4361   1.935   3.367   2.996
  291SL       H 4362   1.692   3.479   3.145
  291SL       H 4363   1.857   3.468   3.208
  291SL       H 4364   1.685   3.270   3.266
  291SL       H 4365   1.850   3.225   3.211
  292SL       O 4366   2.774   3.197   0.819
  292SL       S 4367   2.740   3.212   0.679
  292SL       O 4368   2.655   3.320   0.632
  292SL       C 4369   2.891   3.212   0.584
  292SL       C 4370   2.871   3.104   0.478
  292SL       C 4371   2.794   2.992   0.546
  292SL       C 4372   2.677   3.058   0.617
  292SL       H 4373   2.909   3.311   0.541
  292SL       H 4374   2.974   3.186   0.651
  292SL       H 4375   2.967   3.069   0.438
  292SL       H 4376   2.813   3.144   0.395
  292SL       H 4377   2.859   2.942   0.620
  292SL       H 4378   2.760   2.916   0.475
  292SL       H 4379   2.638   2.998   0.699
  292SL       H 4380   2.597   3.081   0.546
  293SL       O 4381   0.600   3.359   2.554
  293SL       S 4382   0.626   3.386   2.693
  293SL       O 4383   0.650   3.520   2.743
  293SL       C 4384   0.497   3.310   2.791
  293SL       C 4385   0.570   3.223   2.892
  293SL       C 4386   0.690   3.163   2.819
  293SL       C 4387   0.758   3.279   2.749
  293SL       H 4388   0.436   3.387   2.838
  293SL       H 4389   0.436   3.249   2.724
  293SL       H 4390   0.504   3.145   2.932
  293SL       H 4391   0.605   3.284   2.976
  293SL       H 4392   0.654   3.090   2.745
  293SL       H 4393   0.758   3.112   2.887
  293SL       H 4394   0.819   3.248   2.664
  293SL       H 4395   0.820   3.336   2.819
  294SL       O 4396   1.445   2.851   1.750
  294SL       S 4397   1.359   2.779   1.659
  294SL       O 4398   1.329   2.638   1.676
  294SL       C 4399   1.207   2.869   1.641
  294SL       C 4400   1.190   2.889   1.491
  294SL       C 4401   1.330   2.914   1.435
  294SL       C 4402   1.417   2.805   1.492
  294SL       H 4403   1.124   2.813   1.685
  294SL       H 4404   1.218   2.966   1.692
  294SL       H 4405   1.122   2.973   1.469
  294SL       H 4406   1.147   2.799   1.445
  294SL       H 4407   1.365   3.013   1.469
  294SL       H 4408   1.331   2.914   1.326
  294SL       H 4409   1.523   2.832   1.494
  294SL       H 4410   1.404   2.711   1.437
  295SL       O 4411   3.413   0.492   2.982
  295SL       S 4412   3.507   0.565   2.901
  295SL       O 4413   3.545   0.520   2.769
  295SL       C 4414   3.454   0.735   2.891
  295SL       C 4415   3.575   0.817   2.935
  295SL       C 4416   3.642   0.738   3.047
  295SL       C 4417   3.655   0.596   2.996
  295SL       H 4418   3.422   0.758   2.789
  295SL       H 4419   3.371   0.749   2.960
  295SL       H 4420   3.545   0.917   2.968
  295SL       H 4421   3.645   0.829   2.851
  295SL       H 4422   3.577   0.740   3.136
  295SL       H 4423   3.738   0.780   3.075
  295SL       H 4424   3.663   0.522   3.076
  295SL       H 4425   3.741   0.587   2.928
  296SL       O 4426   2.146   2.402   4.048
  296SL       S 4427   2.109   2.314   3.939
  296SL       O 4428   2.149   2.342   3.802
  296SL       C 4429   2.157   2.148   3.981
  296SL       C 4430   2.031   2.064   3.963
  296SL       C 4431   1.915   2.152   4.011
  296SL       C 4432   1.933   2.286   3.943
  296SL       H 4433   2.239   2.115   3.916
  296SL       H 4434   2.190   2.147   4.085
  296SL       H 4435   2.037   1.971   4.020
  296SL       H 4436   2.017   2.039   3.858
  296SL       H 4437   1.922   2.164   4.121
  296SL       H 4438   1.818   2.108   3.988
  296SL       H 4439   1.884   2.368   3.996
  296SL       H 4440   1.898   2.282   3.840
  297SL       O 4441   3.305   1.173   3.072
  297SL       S 4442   3.256   1.038   3.057
  297SL       O 4443   3.265   0.966   2.932
  297SL       C 4444   3.326   0.938   3.187
  297SL       C 4445   3.207   0.872   3.255
  297SL       C 4446   3.095   0.976   3.256
  297SL       C 4447   3.087   1.030   3.115
  297SL       H 4448   3.396   0.866   3.145
  297SL       H 4449   3.379   1.005   3.256
  297SL       H 4450   3.232   0.838   3.356
  297SL       H 4451   3.175   0.784   3.197
  297SL       H 4452   3.122   1.057   3.327
  297SL       H 4453   3.000   0.934   3.289
  297SL       H 4454   3.042   1.130   3.110
  297SL       H 4455   3.033   0.962   3.050
  298SL       O 4456   0.769   3.275   1.889
  298SL       S 4457   0.820   3.146   1.850
  298SL       O 4458   0.882   3.056   1.945
  298SL       C 4459   0.691   3.058   1.763
  298SL       C 4460   0.754   3.016   1.631
  298SL       C 4461   0.845   3.132   1.588
  298SL       C 4462   0.929   3.166   1.710
  298SL       H 4463   0.657   2.973   1.822
  298SL       H 4464   0.608   3.127   1.746
  298SL       H 4465   0.678   2.995   1.555
  298SL       H 4466   0.814   2.926   1.645
  298SL       H 4467   0.783   3.218   1.560
  298SL       H 4468   0.907   3.106   1.503
  298SL       H 4469   0.967   3.268   1.708
  298SL       H 4470   1.011   3.095   1.722
  299SL       O 4471   2.939   3.940   2.760
  299SL       S 4472   2.898   3.936   2.621
  299SL       O 4473   2.908   4.053   2.535
  299SL       C 4474   2.980   3.799   2.542
  299SL       C 4475   2.869   3.718   2.477
  299SL       C 4476   2.750   3.724   2.574
  299SL       C 4477   2.733   3.870   2.610
  299SL       H 4478   3.053   3.836   2.469
  299SL       H 4479   3.031   3.741   2.619
  299SL       H 4480   2.900   3.615   2.458
  299SL       H 4481   2.840   3.764   2.381
  299SL       H 4482   2.774   3.665   2.664
  299SL       H 4483   2.660   3.682   2.530
  299SL       H 4484   2.681   3.884   2.706
  299SL       H 4485   2.681   3.924   2.531
  300SL       O 4486   1.961   1.925   1.819
  300SL       S 4487   1.982   1.875   1.685
  300SL       O 4488   1.935   1.744   1.644
  300SL       C 4489   1.923   1.997   1.569
  300SL       C 4490   2.040   2.022   1.475
  300SL       C 4491   2.166   2.016   1.561
  300SL       C 4492   2.155   1.890   1.644
  300SL       H 4493   1.834   1.959   1.517
  300SL       H 4494   1.898   2.087   1.625
  300SL       H 4495   2.031   2.118   1.423
  300SL       H 4496   2.045   1.943   1.398
  300SL       H 4497   2.169   2.105   1.627
  300SL       H 4498   2.257   2.017   1.501
  300SL       H 4499   2.215   1.893   1.735
  300SL       H 4500   2.183   1.802   1.585
  301SL       O 4501   2.796   0.101   3.044
  301SL       S 4502   2.792   0.230   3.107
  301SL       O 4503   2.835   0.351   3.038
  301SL       C 4504   2.629   0.256   3.174
  301SL       C 4505   2.652   0.292   3.321
  301SL       C 4506   2.769   0.205   3.368
  301SL       C 4507   2.877   0.221   3.264
  301SL       H 4508   2.578   0.336   3.119
  301SL       H 4509   2.573   0.163   3.165
  301SL       H 4510   2.562   0.274   3.381
  301SL       H 4511   2.678   0.398   3.331
  301SL       H 4512   2.736   0.100   3.373
  301SL       H 4513   2.803   0.234   3.468
  301SL       H 4514   2.948   0.138   3.263
  301SL       H 4515   2.931   0.315   3.278
  302SL       O 4516   3.499   2.300   1.652
  302SL       S 4517   3.421   2.225   1.557
  302SL       O 4518   3.388   2.277   1.426
  302SL       C 4519   3.496   2.064   1.538
  302SL       C 4520   3.383   1.964   1.565
  302SL       C 4521   3.299   2.025   1.677
  302SL       C 4522   3.272   2.168   1.636
  302SL       H 4523   3.538   2.053   1.438
  302SL       H 4524   3.575   2.054   1.613
  302SL       H 4525   3.422   1.866   1.592
  302SL       H 4526   3.321   1.953   1.475
  302SL       H 4527   3.356   2.022   1.771
  302SL       H 4528   3.206   1.970   1.693
  302SL       H 4529   3.248   2.233   1.721
  302SL       H 4530   3.191   2.174   1.562
  303SL       O 4531   0.603   1.798   3.363
  303SL       S 4532   0.739   1.829   3.400
  303SL       O 4533   0.847   1.735   3.377
  303SL       C 4534   0.783   1.987   3.330
  303SL       C 4535   0.834   2.069   3.447
  303SL       C 4536   0.747   2.032   3.567
  303SL       C 4537   0.744   1.881   3.570
  303SL       H 4538   0.858   1.973   3.251
  303SL       H 4539   0.693   2.031   3.287
  303SL       H 4540   0.830   2.177   3.426
  303SL       H 4541   0.939   2.044   3.468
  303SL       H 4542   0.645   2.072   3.551
  303SL       H 4543   0.785   2.074   3.660
  303SL       H 4544   0.656   1.841   3.623
  303SL       H 4545   0.835   1.840   3.615
  304SL       O 4546   1.820   1.307   2.170
  304SL       S 4547   1.796   1.395   2.059
  304SL       O 4548   1.819   1.538   2.068
  304SL       C 4549   1.882   1.332   1.916
  304SL       C 4550   1.776   1.322   1.807
  304SL       C 4551   1.648   1.276   1.877
  304SL       C 4552   1.631   1.367   1.997
  304SL       H 4553   1.964   1.399   1.889
  304SL       H 4554   1.922   1.233   1.941
  304SL       H 4555   1.806   1.252   1.729
  304SL       H 4556   1.760   1.420   1.761
  304SL       H 4557   1.659   1.172   1.910
  304SL       H 4558   1.561   1.281   1.811
  304SL       H 4559   1.569   1.323   2.076
  304SL       H 4560   1.590   1.464   1.968
  305SL       O 4561   3.636   2.920   2.840
  305SL       S 4562   3.563   2.898   2.717
  305SL       O 4563   3.604   2.960   2.593
  305SL       C 4564   3.546   2.723   2.692
  305SL       C 4565   3.396   2.700   2.671
  305SL       C 4566   3.325   2.797   2.766
  305SL       C 4567   3.390   2.932   2.744
  305SL       H 4568   3.605   2.691   2.606
  305SL       H 4569   3.580   2.671   2.782
  305SL       H 4570   3.368   2.596   2.692
  305SL       H 4571   3.369   2.723   2.568
  305SL       H 4572   3.341   2.764   2.870
  305SL       H 4573   3.218   2.801   2.748
  305SL       H 4574   3.379   2.999   2.829
  305SL       H 4575   3.352   2.980   2.654
  306SL       O 4576   0.585   2.872   2.508
  306SL       S 4577   0.707   2.931   2.459
  306SL       O 4578   0.733   3.073   2.467
  306SL       C 4579   0.845   2.843   2.530
  306SL       C 4580   0.931   2.800   2.411
  306SL       C 4581   0.833   2.763   2.300
  306SL       C 4582   0.735   2.877   2.291
  306SL       H 4583   0.899   2.908   2.600
  306SL       H 4584   0.806   2.756   2.583
  306SL       H 4585   0.996   2.717   2.437
  306SL       H 4586   0.994   2.884   2.378
  306SL       H 4587   0.781   2.670   2.327
  306SL       H 4588   0.884   2.746   2.205
  306SL       H 4589   0.639   2.848   2.246
  306SL       H 4590   0.777   2.961   2.235
  307SL       O 4591   0.128   2.521   0.677
  307SL       S 4592   0.251   2.535   0.751
  307SL       O 4593   0.381   2.524   0.688
  307SL       C 4594   0.245   2.689   0.842
  307SL       C 4595   0.274   2.650   0.987
  307SL       C 4596   0.206   2.516   1.010
  307SL       C 4597   0.247   2.428   0.894
  307SL       H 4598   0.318   2.760   0.802
  307SL       H 4599   0.144   2.730   0.833
  307SL       H 4600   0.238   2.727   1.057
  307SL       H 4601   0.382   2.640   1.002
  307SL       H 4602   0.097   2.530   1.010
  307SL       H 4603   0.234   2.471   1.106
  307SL       H 4604   0.177   2.346   0.875
  307SL       H 4605   0.348   2.388   0.908
  308SL       O 4606   2.133   2.729   3.689
  308SL       S 4607   2.160   2.742   3.548
  308SL       O 4608   2.144   2.868   3.478
  308SL       C 4609   2.324   2.680   3.516
  308SL       C 4610   2.306   2.577   3.405
  308SL       C 4611   2.174   2.506   3.434
  308SL       C 4612   2.073   2.615   3.459
  308SL       H 4613   2.391   2.761   3.487
  308SL       H 4614   2.361   2.632   3.608
  308SL       H 4615   2.390   2.506   3.402
  308SL       H 4616   2.300   2.627   3.308
  308SL       H 4617   2.185   2.443   3.524
  308SL       H 4618   2.143   2.441   3.352
  308SL       H 4619   1.987   2.581   3.519
  308SL       H 4620   2.037   2.659   3.365
  309SL       O 4621   4.000   2.934   1.354
  309SL       S 4622   3.919   2.817   1.381
  309SL       O 4623   3.967   2.683   1.354
  309SL       C 4624   3.863   2.826   1.550
  309SL       C 4625   3.711   2.810   1.542
  309SL       C 4626   3.667   2.885   1.416
  309SL       C 4627   3.759   2.837   1.305
  309SL       H 4628   3.910   2.747   1.610
  309SL       H 4629   3.889   2.924   1.590
  309SL       H 4630   3.662   2.850   1.631
  309SL       H 4631   3.685   2.704   1.532
  309SL       H 4632   3.680   2.993   1.431
  309SL       H 4633   3.562   2.867   1.391
  309SL       H 4634   3.767   2.908   1.222
  309SL       H 4635   3.728   2.740   1.267
  310SL       O 4636   0.653   2.842   3.798
  310SL       S 4637   0.780   2.902   3.830
  310SL       O 4638   0.885   2.829   3.898
  310SL       C 4639   0.847   2.975   3.681
  310SL       C 4640   0.877   3.120   3.718
  310SL       C 4641   0.764   3.164   3.811
  310SL       C 4642   0.751   3.056   3.916
  310SL       H 4643   0.936   2.920   3.649
  310SL       H 4644   0.770   2.969   3.603
  310SL       H 4645   0.883   3.183   3.629
  310SL       H 4646   0.973   3.126   3.770
  310SL       H 4647   0.671   3.173   3.753
  310SL       H 4648   0.784   3.262   3.856
  310SL       H 4649   0.653   3.054   3.963
  310SL       H 4650   0.829   3.066   3.992
  311SL       O 4651   1.598   1.028   0.498
  311SL       S 4652   1.698   0.954   0.425
  311SL       O 4653   1.747   0.998   0.296
  311SL       C 4654   1.838   0.927   0.533
  311SL       C 4655   1.862   0.776   0.529
  311SL       C 4656   1.723   0.711   0.523
  311SL       C 4657   1.648   0.784   0.413
  311SL       H 4658   1.924   0.984   0.498
  311SL       H 4659   1.810   0.959   0.633
  311SL       H 4660   1.918   0.743   0.617
  311SL       H 4661   1.919   0.749   0.440
  311SL       H 4662   1.672   0.726   0.620
  311SL       H 4663   1.729   0.604   0.504
  311SL       H 4664   1.539   0.776   0.424
  311SL       H 4665   1.678   0.747   0.315
  312SL       O 4666   3.289   2.858   3.697
  312SL       S 4667   3.307   2.730   3.762
  312SL       O 4668   3.360   2.615   3.691
  312SL       C 4669   3.403   2.755   3.911
  312SL       C 4670   3.320   2.691   4.022
  312SL       C 4671   3.174   2.721   3.988
  312SL       C 4672   3.155   2.684   3.843
  312SL       H 4673   3.501   2.709   3.900
  312SL       H 4674   3.413   2.862   3.927
  312SL       H 4675   3.347   2.731   4.120
  312SL       H 4676   3.335   2.583   4.024
  312SL       H 4677   3.155   2.829   4.002
  312SL       H 4678   3.105   2.667   4.053
  312SL       H 4679   3.071   2.735   3.796
  312SL       H 4680   3.144   2.575   3.832
  313SL       O 4681   2.558   3.284   3.685
  313SL       S 4682   2.523   3.183   3.783
  313SL       O 4683   2.554   3.043   3.762
  313SL       C 4684   2.586   3.233   3.942
  313SL       C 4685   2.466   3.228   4.035
  313SL       C 4686   2.346   3.277   3.953
  313SL       C 4687   2.351   3.199   3.824
  313SL       H 4688   2.667   3.166   3.973
  313SL       H 4689   2.624   3.335   3.933
  313SL       H 4690   2.482   3.290   4.124
  313SL       H 4691   2.449   3.125   4.069
  313SL       H 4692   2.357   3.385   3.933
  313SL       H 4693   2.252   3.262   4.006
  313SL       H 4694   2.298   3.249   3.742
  313SL       H 4695   2.310   3.098   3.837
  314SL       O 4696   1.470   1.587   0.718
  314SL       S 4697   1.522   1.671   0.824
  314SL       O 4698   1.448   1.693   0.947
  314SL       C 4699   1.687   1.617   0.863
  314SL       C 4700   1.773   1.742   0.852
  314SL       C 4701   1.718   1.822   0.734
  314SL       C 4702   1.568   1.829   0.756
  314SL       H 4703   1.689   1.573   0.963
  314SL       H 4704   1.717   1.542   0.789
  314SL       H 4705   1.879   1.717   0.838
  314SL       H 4706   1.765   1.801   0.944
  314SL       H 4707   1.741   1.768   0.641
  314SL       H 4708   1.763   1.921   0.728
  314SL       H 4709   1.513   1.847   0.663
  314SL       H 4710   1.543   1.906   0.829
  315SL       O 4711   1.273   2.238   1.974
  315SL       S 4712   1.284   2.187   1.840
  315SL       O 4713   1.368   2.074   1.807
  315SL       C 4714   1.119   2.156   1.778
  315SL       C 4715   1.112   2.231   1.645
  315SL       C 4716   1.190   2.361   1.666
  315SL       C 4717   1.322   2.321   1.729
  315SL       H 4718   1.103   2.048   1.765
  315SL       H 4719   1.048   2.196   1.850
  315SL       H 4720   1.008   2.251   1.616
  315SL       H 4721   1.159   2.173   1.566
  315SL       H 4722   1.134   2.426   1.735
  315SL       H 4723   1.204   2.416   1.573
  315SL       H 4724   1.369   2.402   1.784
  315SL       H 4725   1.391   2.283   1.653
  316SL       O 4726   3.270   2.628   3.182
  316SL       S 4727   3.329   2.516   3.112
  316SL       O 4728   3.248   2.421   3.039
  316SL       C 4729   3.458   2.577   3.005
  316SL       C 4730   3.581   2.496   3.042
  316SL       C 4731   3.576   2.476   3.193
  316SL       C 4732   3.436   2.427   3.224
  316SL       H 4733   3.429   2.565   2.901
  316SL       H 4734   3.473   2.683   3.028
  316SL       H 4735   3.673   2.547   3.011
  316SL       H 4736   3.578   2.398   2.992
  316SL       H 4737   3.595   2.572   3.243
  316SL       H 4738   3.652   2.405   3.228
  316SL       H 4739   3.406   2.447   3.327
  316SL       H 4740   3.426   2.320   3.202
  317SL       O 4741   1.019   4.093   2.241
  317SL       S 4742   0.919   3.994   2.273
  317SL       O 4743   0.832   4.009   2.389
  317SL       C 4744   0.819   3.966   2.129
  317SL       C 4745   0.822   3.815   2.107
  317SL       C 4746   0.964   3.770   2.144
  317SL       C 4747   0.994   3.833   2.278
  317SL       H 4748   0.717   4.004   2.145
  317SL       H 4749   0.865   4.018   2.044
  317SL       H 4750   0.797   3.788   2.004
  317SL       H 4751   0.750   3.766   2.173
  317SL       H 4752   1.034   3.807   2.067
  317SL       H 4753   0.973   3.661   2.147
  317SL       H 4754   1.101   3.843   2.297
  317SL       H 4755   0.947   3.776   2.359
  318SL       O 4756   0.314   3.605   1.478
  318SL       S 4757   0.358   3.474   1.519
  318SL       O 4758   0.283   3.355   1.486
  318SL       C 4759   0.527   3.452   1.469
  318SL       C 4760   0.601   3.411   1.596
  318SL       C 4761   0.539   3.492   1.709
  318SL       C 4762   0.389   3.475   1.695
  318SL       H 4763   0.534   3.376   1.390
  318SL       H 4764   0.564   3.548   1.431
  318SL       H 4765   0.709   3.430   1.587
  318SL       H 4766   0.587   3.304   1.615
  318SL       H 4767   0.566   3.598   1.698
  318SL       H 4768   0.573   3.459   1.807
  318SL       H 4769   0.332   3.556   1.741
  318SL       H 4770   0.356   3.379   1.735
  319SL       O 4771   0.358   1.206   1.427
  319SL       S 4772   0.420   1.286   1.324
  319SL       O 4773   0.508   1.396   1.356
  319SL       C 4774   0.502   1.177   1.209
  319SL       C 4775   0.447   1.216   1.072
  319SL       C 4776   0.300   1.249   1.093
  319SL       C 4777   0.294   1.343   1.211
  319SL       H 4778   0.610   1.190   1.216
  319SL       H 4779   0.475   1.074   1.234
  319SL       H 4780   0.461   1.135   1.000
  319SL       H 4781   0.500   1.304   1.034
  319SL       H 4782   0.244   1.156   1.116
  319SL       H 4783   0.254   1.293   1.004
  319SL       H 4784   0.197   1.344   1.262
  319SL       H 4785   0.321   1.445   1.181
  320SL       O 4786   3.819   1.690   1.396
  320SL       S 4787   3.820   1.726   1.256
  320SL       O 4788   3.735   1.659   1.159
  320SL       C 4789   3.797   1.902   1.242
  320SL       C 4790   3.914   1.951   1.157
  320SL       C 4791   4.035   1.867   1.198
  320SL       C 4792   3.988   1.723   1.196
  320SL       H 4793   3.700   1.924   1.197
  320SL       H 4794   3.802   1.945   1.342
  320SL       H 4795   3.932   2.058   1.171
  320SL       H 4796   3.892   1.934   1.050
  320SL       H 4797   4.065   1.895   1.300
  320SL       H 4798   4.120   1.883   1.132
  320SL       H 4799   4.049   1.658   1.260
  320SL       H 4800   3.987   1.684   1.094
  321SL       O 4801   3.042   1.187   2.160
  321SL       S 4802   2.934   1.218   2.070
  321SL       O 4803   2.953   1.220   1.926
  321SL       C 4804   2.795   1.113   2.109
  321SL       C 4805   2.678   1.208   2.129
  321SL       C 4806   2.734   1.331   2.199
  321SL       C 4807   2.857   1.371   2.120
  321SL       H 4808   2.778   1.042   2.027
  321SL       H 4809   2.818   1.059   2.201
  321SL       H 4810   2.598   1.161   2.188
  321SL       H 4811   2.635   1.237   2.032
  321SL       H 4812   2.763   1.305   2.302
  321SL       H 4813   2.662   1.413   2.204
  321SL       H 4814   2.928   1.430   2.179
  321SL       H 4815   2.830   1.426   2.029
  322SL       O 4816   1.134   1.436   2.379
  322SL       S 4817   1.117   1.313   2.305
  322SL       O 4818   0.993   1.238   2.309
  322SL       C 4819   1.160   1.343   2.135
  322SL       C 4820   1.264   1.236   2.101
  322SL       C 4821   1.350   1.219   2.226
  322SL       C 4822   1.252   1.203   2.341
  322SL       H 4823   1.072   1.337   2.071
  322SL       H 4824   1.204   1.443   2.128
  322SL       H 4825   1.325   1.266   2.015
  322SL       H 4826   1.214   1.142   2.077
  322SL       H 4827   1.411   1.309   2.241
  322SL       H 4828   1.417   1.133   2.219
  322SL       H 4829   1.296   1.229   2.438
  322SL       H 4830   1.212   1.101   2.345
  323SL       O 4831   2.584   3.034   1.781
  323SL       S 4832   2.635   3.041   1.916
  323SL       O 4833   2.548   3.066   2.030
  323SL       C 4834   2.731   2.894   1.948
  323SL       C 4835   2.866   2.945   1.997
  323SL       C 4836   2.896   3.071   1.916
  323SL       C 4837   2.771   3.156   1.922
  323SL       H 4838   2.680   2.831   2.022
  323SL       H 4839   2.742   2.839   1.854
  323SL       H 4840   2.944   2.869   1.985
  323SL       H 4841   2.860   2.971   2.104
  323SL       H 4842   2.917   3.042   1.811
  323SL       H 4843   2.983   3.124   1.954
  323SL       H 4844   2.763   3.226   1.839
  323SL       H 4845   2.765   3.210   2.017
  324SL       O 4846   1.496   3.694   1.956
  324SL       S 4847   1.482   3.782   2.070
  324SL       O 4848   1.471   3.730   2.205
  324SL       C 4849   1.612   3.904   2.065
  324SL       C 4850   1.540   4.038   2.074
  324SL       C 4851   1.411   4.023   1.993
  324SL       C 4852   1.347   3.894   2.040
  324SL       H 4853   1.682   3.888   2.147
  324SL       H 4854   1.664   3.894   1.969
  324SL       H 4855   1.602   4.119   2.035
  324SL       H 4856   1.516   4.061   2.178
  324SL       H 4857   1.436   4.016   1.886
  324SL       H 4858   1.345   4.108   2.006
  324SL       H 4859   1.278   3.851   1.967
  324SL       H 4860   1.295   3.909   2.135
  325SL       O 4861   2.834   1.615   0.774
  325SL       S 4862   2.834   1.760   0.767
  325SL       O 4863   2.725   1.839   0.821
  325SL       C 4864   2.988   1.820   0.833
  325SL       C 4865   3.046   1.910   0.724
  325SL       C 4866   3.011   1.843   0.591
  325SL       C 4867   2.864   1.809   0.598
  325SL       H 4868   2.971   1.873   0.927
  325SL       H 4869   3.054   1.734   0.851
  325SL       H 4870   3.154   1.923   0.736
  325SL       H 4871   2.999   2.009   0.729
  325SL       H 4872   3.071   1.751   0.580
  325SL       H 4873   3.034   1.907   0.506
  325SL       H 4874   2.835   1.728   0.530
  325SL       H 4875   2.802   1.898   0.578
  326SL       O 4876   2.690   0.673   2.452
  326SL       S 4877   2.648   0.618   2.579
  326SL       O 4878   2.610   0.703   2.690
  326SL       C 4879   2.519   0.499   2.550
  326SL       C 4880   2.566   0.372   2.620
  326SL       C 4881   2.717   0.365   2.598
  326SL       C 4882   2.770   0.501   2.636
  326SL       H 4883   2.424   0.536   2.590
  326SL       H 4884   2.510   0.484   2.442
  326SL       H 4885   2.515   0.283   2.579
  326SL       H 4886   2.544   0.377   2.727
  326SL       H 4887   2.738   0.344   2.492
  326SL       H 4888   2.763   0.286   2.657
  326SL       H 4889   2.867   0.524   2.589
  326SL       H 4890   2.779   0.512   2.745
  327SL       O 4891   0.983   2.104   0.943
  327SL       S 4892   0.883   2.124   1.045
  327SL       O 4893   0.815   2.250   1.063
  327SL       C 4894   0.761   1.994   1.030
  327SL       C 4895   0.753   1.932   1.169
  327SL       C 4896   0.895   1.932   1.225
  327SL       C 4897   0.948   2.072   1.203
  327SL       H 4898   0.666   2.036   0.997
  327SL       H 4899   0.798   1.921   0.957
  327SL       H 4900   0.711   1.830   1.165
  327SL       H 4901   0.688   1.992   1.234
  327SL       H 4902   0.956   1.859   1.169
  327SL       H 4903   0.898   1.904   1.330
  327SL       H 4904   1.058   2.076   1.200
  327SL       H 4905   0.911   2.141   1.279
  328SL       O 4906   3.932   4.062   3.403
  328SL       S 4907   3.891   4.035   3.539
  328SL       O 4908   3.794   4.118   3.608
  328SL       C 4909   3.839   3.865   3.549
  328SL       C 4910   3.920   3.806   3.664
  328SL       C 4911   4.059   3.870   3.655
  328SL       C 4912   4.035   4.018   3.642
  328SL       H 4913   3.731   3.859   3.567
  328SL       H 4914   3.864   3.816   3.455
  328SL       H 4915   3.925   3.697   3.657
  328SL       H 4916   3.874   3.831   3.760
  328SL       H 4917   4.111   3.831   3.566
  328SL       H 4918   4.120   3.846   3.742
  328SL       H 4919   4.119   4.071   3.596
  328SL       H 4920   4.012   4.064   3.739
  329SL       O 4921   2.438   3.725   2.482
  329SL       S 4922   2.512   3.680   2.366
  329SL       O 4923   2.629   3.750   2.318
  329SL       C 4924   2.553   3.508   2.389
  329SL       C 4925   2.501   3.438   2.263
  329SL       C 4926   2.370   3.508   2.227
  329SL       C 4927   2.399   3.657   2.230
  329SL       H 4928   2.661   3.496   2.402
  329SL       H 4929   2.500   3.472   2.477
  329SL       H 4930   2.486   3.331   2.279
  329SL       H 4931   2.573   3.450   2.181
  329SL       H 4932   2.293   3.483   2.302
  329SL       H 4933   2.332   3.477   2.129
  329SL       H 4934   2.310   3.718   2.246
  329SL       H 4935   2.450   3.689   2.139
  330SL       O 4936   1.098   2.681   0.774
  330SL       S 4937   1.130   2.710   0.636
  330SL       O 4938   1.049   2.661   0.527
  330SL       C 4939   1.153   2.886   0.619
  330SL       C 4940   1.290   2.902   0.555
  330SL       C 4941   1.379   2.793   0.616
  330SL       C 4942   1.300   2.665   0.606
  330SL       H 4943   1.073   2.928   0.558
  330SL       H 4944   1.151   2.930   0.719
  330SL       H 4945   1.331   3.002   0.572
  330SL       H 4946   1.283   2.887   0.446
  330SL       H 4947   1.398   2.818   0.722
  330SL       H 4948   1.475   2.786   0.565
  330SL       H 4949   1.332   2.589   0.679
  330SL       H 4950   1.306   2.623   0.505
  331SL       O 4951   0.836   1.160   1.291
  331SL       S 4952   0.863   1.274   1.206
  331SL       O 4953   0.829   1.274   1.066
  331SL       C 4954   0.795   1.419   1.283
  331SL       C 4955   0.911   1.518   1.290
  331SL       C 4956   1.036   1.435   1.322
  331SL       C 4957   1.035   1.320   1.224
  331SL       H 4958   0.711   1.457   1.224
  331SL       H 4959   0.761   1.392   1.384
  331SL       H 4960   0.894   1.595   1.366
  331SL       H 4961   0.924   1.569   1.194
  331SL       H 4962   1.029   1.398   1.425
  331SL       H 4963   1.127   1.494   1.313
  331SL       H 4964   1.092   1.234   1.259
  331SL       H 4965   1.071   1.351   1.126
  332SL       O 4966   4.098   2.448   2.501
  332SL       S 4967   4.035   2.409   2.624
  332SL       O 4968   4.085   2.300   2.705
  332SL       C 4969   4.016   2.553   2.727
  332SL       C 4970   3.868   2.557   2.764
  332SL       C 4971   3.792   2.510   2.640
  332SL       C 4972   3.861   2.382   2.595
  332SL       H 4973   4.081   2.546   2.814
  332SL       H 4974   4.043   2.641   2.667
  332SL       H 4975   3.837   2.657   2.794
  332SL       H 4976   3.848   2.489   2.847
  332SL       H 4977   3.799   2.587   2.561
  332SL       H 4978   3.686   2.493   2.660
  332SL       H 4979   3.844   2.360   2.489
  332SL       H 4980   3.829   2.297   2.656
  333SL       O 4981   3.285   3.364   1.495
  333SL       S 4982   3.270   3.240   1.423
  333SL       O 4983   3.279   3.234   1.278
  333SL       C 4984   3.381   3.119   1.493
  333SL       C 4985   3.293   2.999   1.527
  333SL       C 4986   3.160   3.056   1.576
  333SL       C 4987   3.119   3.160   1.474
  333SL       H 4988   3.460   3.095   1.422
  333SL       H 4989   3.424   3.162   1.584
  333SL       H 4990   3.340   2.935   1.602
  333SL       H 4991   3.276   2.939   1.437
  333SL       H 4992   3.175   3.104   1.675
  333SL       H 4993   3.084   2.979   1.588
  333SL       H 4994   3.050   3.235   1.515
  333SL       H 4995   3.074   3.113   1.386
  334SL       O 4996   1.287   2.904   0.890
  334SL       S 4997   1.314   3.045   0.870
  334SL       O 4998   1.240   3.124   0.774
  334SL       C 4999   1.310   3.127   1.028
  334SL       C 5000   1.443   3.201   1.038
  334SL       C 5001   1.547   3.109   0.973
  334SL       C 5002   1.488   3.067   0.840
  334SL       H 5003   1.224   3.194   1.034
  334SL       H 5004   1.302   3.050   1.106
  334SL       H 5005   1.468   3.224   1.142
  334SL       H 5006   1.437   3.295   0.983
  334SL       H 5007   1.563   3.021   1.038
  334SL       H 5008   1.643   3.159   0.961
  334SL       H 5009   1.531   2.973   0.803
  334SL       H 5010   1.500   3.146   0.765
  335SL       O 5011   3.022   1.482   3.385
  335SL       S 5012   3.087   1.358   3.350
  335SL       O 5013   3.013   1.245   3.295
  335SL       C 5014   3.224   1.394   3.242
  335SL       C 5015   3.344   1.327   3.308
  335SL       C 5016   3.326   1.344   3.458
  335SL       C 5017   3.184   1.301   3.488
  335SL       H 5018   3.204   1.356   3.142
  335SL       H 5019   3.237   1.503   3.239
  335SL       H 5020   3.438   1.372   3.273
  335SL       H 5021   3.346   1.221   3.282
  335SL       H 5022   3.340   1.450   3.485
  335SL       H 5023   3.398   1.286   3.515
  335SL       H 5024   3.145   1.344   3.581
  335SL       H 5025   3.176   1.192   3.492
  336SL       O 5026   0.730   2.093   2.947
  336SL       S 5027   0.797   2.195   3.025
  336SL       O 5028   0.745   2.241   3.152
  336SL       C 5029   0.967   2.146   3.047
  336SL       C 5030   1.049   2.266   2.998
  336SL       C 5031   0.973   2.323   2.878
  336SL       C 5032   0.829   2.336   2.922
  336SL       H 5033   0.986   2.122   3.152
  336SL       H 5034   0.986   2.059   2.984
  336SL       H 5035   1.151   2.236   2.972
  336SL       H 5036   1.055   2.342   3.077
  336SL       H 5037   0.981   2.252   2.794
  336SL       H 5038   1.015   2.418   2.845
  336SL       H 5039   0.759   2.337   2.838
  336SL       H 5040   0.815   2.426   2.983
  337SL       O 5041   2.392   1.012   2.213
  337SL       S 5042   2.271   1.089   2.230
  337SL       O 5043   2.161   1.042   2.312
  337SL       C 5044   2.315   1.254   2.282
  337SL       C 5045   2.246   1.346   2.182
  337SL       C 5046   2.254   1.276   2.046
  337SL       C 5047   2.208   1.134   2.070
  337SL       H 5048   2.283   1.271   2.385
  337SL       H 5049   2.424   1.264   2.275
  337SL       H 5050   2.293   1.445   2.180
  337SL       H 5051   2.141   1.360   2.210
  337SL       H 5052   2.359   1.277   2.011
  337SL       H 5053   2.194   1.326   1.971
  337SL       H 5054   2.245   1.064   1.995
  337SL       H 5055   2.099   1.129   2.075
  338SL       O 5056   2.327   0.932   2.408
  338SL       S 5057   2.425   0.927   2.514
  338SL       O 5058   2.442   0.809   2.597
  338SL       C 5059   2.583   0.975   2.448
  338SL       C 5060   2.632   1.087   2.539
  338SL       C 5061   2.508   1.169   2.575
  338SL       C 5062   2.403   1.069   2.620
  338SL       H 5063   2.651   0.889   2.447
  338SL       H 5064   2.568   1.011   2.346
  338SL       H 5065   2.708   1.149   2.489
  338SL       H 5066   2.676   1.046   2.630
  338SL       H 5067   2.473   1.223   2.485
  338SL       H 5068   2.529   1.243   2.652
  338SL       H 5069   2.301   1.107   2.610
  338SL       H 5070   2.422   1.037   2.723
  339SL       O 5071   0.492   0.649   2.705
  339SL       S 5072   0.352   0.624   2.729
  339SL       O 5073   0.286   0.504   2.682
  339SL       C 5074   0.320   0.644   2.903
  339SL       C 5075   0.205   0.745   2.911
  339SL       C 5076   0.231   0.847   2.800
  339SL       C 5077   0.258   0.766   2.675
  339SL       H 5078   0.294   0.548   2.948
  339SL       H 5079   0.410   0.684   2.950
  339SL       H 5080   0.201   0.793   3.009
  339SL       H 5081   0.109   0.695   2.893
  339SL       H 5082   0.319   0.908   2.826
  339SL       H 5083   0.146   0.915   2.786
  339SL       H 5084   0.315   0.822   2.600
  339SL       H 5085   0.165   0.730   2.630
  340SL       O 5086   3.606   3.434   1.143
  340SL       S 5087   3.526   3.414   1.262
  340SL       O 5088   3.492   3.281   1.309
  340SL       C 5089   3.600   3.506   1.396
  340SL       C 5090   3.487   3.592   1.451
  340SL       C 5091   3.404   3.636   1.331
  340SL       C 5092   3.377   3.511   1.250
  340SL       H 5093   3.641   3.437   1.470
  340SL       H 5094   3.680   3.568   1.355
  340SL       H 5095   3.526   3.677   1.507
  340SL       H 5096   3.424   3.533   1.519
  340SL       H 5097   3.463   3.708   1.271
  340SL       H 5098   3.311   3.685   1.361
  340SL       H 5099   3.355   3.532   1.145
  340SL       H 5100   3.296   3.452   1.294
   4.22000   4.22000   4.22000
