; ITP file created by ByteFF-ML, 2026-09-18 11:17:39.321573

[ defaults ]
;     nbfunc   comb-rule   gen-pairs     fudgeLJ     fudgeQQ
           1           2         yes  0.50000000  0.50000000

#include "SL.itp"

#include "SL.atp"

[ system ]
Full System

[ molecules ]
;molecule            nmols
 SL                    340