; ITP file created by ByteFF-ML, 2026-09-16 23:16:09.232875

[ moleculetype ]
;name             nrexcl
 SL                    3

[ atoms ]
;       nr            type      resi   res      atom      cgnr      charge          mass ; qtot
         1            o0bf         1   UNL        o0         1    -0.57888       15.9990 ; qtot   -0.579
         2            s1bf         1   UNL        s1         2     1.02493       32.0670 ; qtot    0.446
         3            o2bf         1   UNL        o2         3    -0.57888       15.9990 ; qtot   -0.133
         4            c3bf         1   UNL        c3         4    -0.34018       12.0110 ; qtot   -0.473
         5            c4bf         1   UNL        c4         5     0.03509       12.0110 ; qtot   -0.438
         6            c5bf         1   UNL        c5         6     0.03509       12.0110 ; qtot   -0.403
         7            c6bf         1   UNL        c6         7    -0.34018       12.0110 ; qtot   -0.743
         8            h7bf         1   UNL        h7         8     0.14055        1.0080 ; qtot   -0.602
         9            h8bf         1   UNL        h8         9     0.14055        1.0080 ; qtot   -0.462
        10            h9bf         1   UNL        h9        10     0.04520        1.0080 ; qtot   -0.417
        11           h10bf         1   UNL       h10        11     0.04520        1.0080 ; qtot   -0.372
        12           h11bf         1   UNL       h11        12     0.04520        1.0080 ; qtot   -0.326
        13           h12bf         1   UNL       h12        13     0.04520        1.0080 ; qtot   -0.281
        14           h13bf         1   UNL       h13        14     0.14055        1.0080 ; qtot   -0.141
        15           h14bf         1   UNL       h14        15     0.14056        1.0080 ; qtot    0.000

[ bonds ]
;       ai        aj funct               r               k
         1         2     1        0.147333   506933.123340
         2         3     1        0.147333   506933.123340
         2         4     1        0.184157   114776.257178
         2         7     1        0.184157   114776.257178
         4         5     1        0.154751   175835.511230
         4         8     1        0.109526   319016.669629
         4         9     1        0.109526   319016.669629
         5         6     1        0.155125   168307.835352
         5        10     1        0.109953   307670.021191
         5        11     1        0.109953   307670.021191
         6         7     1        0.154751   175835.562305
         6        12     1        0.109953   307670.046729
         6        13     1        0.109953   307670.072266
         7        14     1        0.109526   319016.618555
         7        15     1        0.109526   319016.618555

[ angles ]
;       ai        aj        ak funct           theta             cth
         1         2         3     1      119.959785      753.551386
         1         2         4     1      109.480110      592.301075
         1         2         7     1      109.480125      592.301011
         2         4         5     1      106.541954      685.917948
         2         4         8     1      106.404404      569.589519
         2         4         9     1      106.404404      569.589519
         2         7         6     1      106.541939      685.918331
         2         7        14     1      106.404404      569.589519
         2         7        15     1      106.404404      569.589519
         3         2         4     1      109.480110      592.301075
         3         2         7     1      109.480125      592.301011
         4         2         7     1       98.245720      510.907381
         4         5         6     1      108.804260      544.137448
         4         5        10     1      110.268990      472.356592
         4         5        11     1      110.268990      472.356592
         5         4         8     1      113.679535      462.363985
         5         4         9     1      113.679535      462.363985
         5         6         7     1      108.804260      544.137193
         5         6        12     1      110.765770      477.135096
         5         6        13     1      110.765770      477.135032
         6         5        10     1      110.765778      477.135096
         6         5        11     1      110.765778      477.135096
         6         7        14     1      113.679512      462.364017
         6         7        15     1      113.679512      462.364017
         7         6        12     1      110.268997      472.356688
         7         6        13     1      110.269012      472.356465
         8         4         9     1      110.379967      350.437772
        10         5        11     1      107.273323      359.631450
        12         6        13     1      107.273331      359.631323
        14         7        15     1      110.379982      350.437772

[ dihedrals ] ; propers for gromacs 4.5 or higher, use funct 9
;       ai        aj        ak        al funct           phase               k        pn
         1         2         4         5     9        0.000000       -0.310132         1
         1         2         4         5     9      180.000000        3.222070         2
         1         2         4         5     9        0.000000        0.718754         3
         1         2         4         5     9      180.000000        0.160452         4
         1         2         4         8     9        0.000000       -1.223997         1
         1         2         4         8     9      180.000000        2.436705         2
         1         2         4         8     9        0.000000        0.597167         3
         1         2         4         8     9      180.000000       -0.026491         4
         1         2         4         9     9        0.000000       -1.223997         1
         1         2         4         9     9      180.000000        2.436705         2
         1         2         4         9     9        0.000000        0.597167         3
         1         2         4         9     9      180.000000       -0.026491         4
         1         2         7         6     9        0.000000       -0.310126         1
         1         2         7         6     9      180.000000        3.222070         2
         1         2         7         6     9        0.000000        0.718754         3
         1         2         7         6     9      180.000000        0.160453         4
         1         2         7        14     9        0.000000       -1.223994         1
         1         2         7        14     9      180.000000        2.436705         2
         1         2         7        14     9        0.000000        0.597166         3
         1         2         7        14     9      180.000000       -0.026490         4
         1         2         7        15     9        0.000000       -1.223994         1
         1         2         7        15     9      180.000000        2.436705         2
         1         2         7        15     9        0.000000        0.597166         3
         1         2         7        15     9      180.000000       -0.026490         4
         2         4         5         6     9        0.000000       -3.747897         1
         2         4         5         6     9      180.000000        4.780495         2
         2         4         5         6     9        0.000000        0.298625         3
         2         4         5         6     9      180.000000       -0.314223         4
         2         4         5        10     9        0.000000        5.020757         1
         2         4         5        10     9      180.000000        0.449526         2
         2         4         5        10     9        0.000000        0.541173         3
         2         4         5        10     9      180.000000        0.017868         4
         2         4         5        11     9        0.000000        5.020757         1
         2         4         5        11     9      180.000000        0.449526         2
         2         4         5        11     9        0.000000        0.541173         3
         2         4         5        11     9      180.000000        0.017868         4
         2         7         6         5     9        0.000000       -3.747897         1
         2         7         6         5     9      180.000000        4.780496         2
         2         7         6         5     9        0.000000        0.298625         3
         2         7         6         5     9      180.000000       -0.314223         4
         2         7         6        12     9        0.000000        5.020765         1
         2         7         6        12     9      180.000000        0.449527         2
         2         7         6        12     9        0.000000        0.541173         3
         2         7         6        12     9      180.000000        0.017868         4
         2         7         6        13     9        0.000000        5.020769         1
         2         7         6        13     9      180.000000        0.449525         2
         2         7         6        13     9        0.000000        0.541173         3
         2         7         6        13     9      180.000000        0.017868         4
         3         2         4         5     9        0.000000       -0.310132         1
         3         2         4         5     9      180.000000        3.222070         2
         3         2         4         5     9        0.000000        0.718754         3
         3         2         4         5     9      180.000000        0.160452         4
         3         2         4         8     9        0.000000       -1.223997         1
         3         2         4         8     9      180.000000        2.436705         2
         3         2         4         8     9        0.000000        0.597167         3
         3         2         4         8     9      180.000000       -0.026491         4
         3         2         4         9     9        0.000000       -1.223997         1
         3         2         4         9     9      180.000000        2.436705         2
         3         2         4         9     9        0.000000        0.597167         3
         3         2         4         9     9      180.000000       -0.026491         4
         3         2         7         6     9        0.000000       -0.310126         1
         3         2         7         6     9      180.000000        3.222070         2
         3         2         7         6     9        0.000000        0.718754         3
         3         2         7         6     9      180.000000        0.160453         4
         3         2         7        14     9        0.000000       -1.223994         1
         3         2         7        14     9      180.000000        2.436705         2
         3         2         7        14     9        0.000000        0.597166         3
         3         2         7        14     9      180.000000       -0.026490         4
         3         2         7        15     9        0.000000       -1.223994         1
         3         2         7        15     9      180.000000        2.436705         2
         3         2         7        15     9        0.000000        0.597166         3
         3         2         7        15     9      180.000000       -0.026490         4
         4         2         7         6     9        0.000000       -5.491441         1
         4         2         7         6     9      180.000000        6.263689         2
         4         2         7         6     9        0.000000        0.408346         3
         4         2         7         6     9      180.000000       -1.025336         4
         4         2         7        14     9        0.000000       -1.900252         1
         4         2         7        14     9      180.000000        2.502881         2
         4         2         7        14     9        0.000000        0.456491         3
         4         2         7        14     9      180.000000       -0.218619         4
         4         2         7        15     9        0.000000       -1.900252         1
         4         2         7        15     9      180.000000        2.502881         2
         4         2         7        15     9        0.000000        0.456491         3
         4         2         7        15     9      180.000000       -0.218619         4
         4         5         6         7     9        0.000000       -2.942098         1
         4         5         6         7     9      180.000000        5.938552         2
         4         5         6         7     9        0.000000        0.642408         3
         4         5         6         7     9      180.000000       -0.423966         4
         4         5         6        12     9        0.000000       -3.047970         1
         4         5         6        12     9      180.000000        3.475549         2
         4         5         6        12     9        0.000000        0.791464         3
         4         5         6        12     9      180.000000       -0.014096         4
         4         5         6        13     9        0.000000       -3.047967         1
         4         5         6        13     9      180.000000        3.475548         2
         4         5         6        13     9        0.000000        0.791463         3
         4         5         6        13     9      180.000000       -0.014096         4
         5         4         2         7     9        0.000000       -5.491444         1
         5         4         2         7     9      180.000000        6.263688         2
         5         4         2         7     9        0.000000        0.408346         3
         5         4         2         7     9      180.000000       -1.025336         4
         5         6         7        14     9        0.000000       -1.743266         1
         5         6         7        14     9      180.000000        2.923868         2
         5         6         7        14     9        0.000000        0.790394         3
         5         6         7        14     9      180.000000        0.009802         4
         5         6         7        15     9        0.000000       -1.743266         1
         5         6         7        15     9      180.000000        2.923868         2
         5         6         7        15     9        0.000000        0.790394         3
         5         6         7        15     9      180.000000        0.009802         4
         6         5         4         8     9        0.000000       -1.743265         1
         6         5         4         8     9      180.000000        2.923871         2
         6         5         4         8     9        0.000000        0.790394         3
         6         5         4         8     9      180.000000        0.009802         4
         6         5         4         9     9        0.000000       -1.743265         1
         6         5         4         9     9      180.000000        2.923871         2
         6         5         4         9     9        0.000000        0.790394         3
         6         5         4         9     9      180.000000        0.009802         4
         7         2         4         8     9        0.000000       -1.900257         1
         7         2         4         8     9      180.000000        2.502883         2
         7         2         4         8     9        0.000000        0.456492         3
         7         2         4         8     9      180.000000       -0.218620         4
         7         2         4         9     9        0.000000       -1.900257         1
         7         2         4         9     9      180.000000        2.502883         2
         7         2         4         9     9        0.000000        0.456492         3
         7         2         4         9     9      180.000000       -0.218620         4
         7         6         5        10     9        0.000000       -3.047965         1
         7         6         5        10     9      180.000000        3.475548         2
         7         6         5        10     9        0.000000        0.791464         3
         7         6         5        10     9      180.000000       -0.014096         4
         7         6         5        11     9        0.000000       -3.047965         1
         7         6         5        11     9      180.000000        3.475548         2
         7         6         5        11     9        0.000000        0.791464         3
         7         6         5        11     9      180.000000       -0.014096         4
         8         4         5        10     9        0.000000       -0.623538         1
         8         4         5        10     9      180.000000        1.930894         2
         8         4         5        10     9        0.000000        0.729818         3
         8         4         5        10     9      180.000000        0.066539         4
         8         4         5        11     9        0.000000       -0.623538         1
         8         4         5        11     9      180.000000        1.930894         2
         8         4         5        11     9        0.000000        0.729818         3
         8         4         5        11     9      180.000000        0.066539         4
         9         4         5        10     9        0.000000       -0.623538         1
         9         4         5        10     9      180.000000        1.930894         2
         9         4         5        10     9        0.000000        0.729818         3
         9         4         5        10     9      180.000000        0.066539         4
         9         4         5        11     9        0.000000       -0.623538         1
         9         4         5        11     9      180.000000        1.930894         2
         9         4         5        11     9        0.000000        0.729818         3
         9         4         5        11     9      180.000000        0.066539         4
        10         5         6        12     9        0.000000       -3.176497         1
        10         5         6        12     9      180.000000        2.975806         2
        10         5         6        12     9        0.000000        0.740824         3
        10         5         6        12     9      180.000000       -0.034859         4
        10         5         6        13     9        0.000000       -3.176497         1
        10         5         6        13     9      180.000000        2.975805         2
        10         5         6        13     9        0.000000        0.740824         3
        10         5         6        13     9      180.000000       -0.034860         4
        11         5         6        12     9        0.000000       -3.176497         1
        11         5         6        12     9      180.000000        2.975806         2
        11         5         6        12     9        0.000000        0.740824         3
        11         5         6        12     9      180.000000       -0.034859         4
        11         5         6        13     9        0.000000       -3.176497         1
        11         5         6        13     9      180.000000        2.975805         2
        11         5         6        13     9        0.000000        0.740824         3
        11         5         6        13     9      180.000000       -0.034860         4
        12         6         7        14     9        0.000000       -0.623538         1
        12         6         7        14     9      180.000000        1.930893         2
        12         6         7        14     9        0.000000        0.729818         3
        12         6         7        14     9      180.000000        0.066539         4
        12         6         7        15     9        0.000000       -0.623535         1
        12         6         7        15     9      180.000000        1.930893         2
        12         6         7        15     9        0.000000        0.729818         3
        12         6         7        15     9      180.000000        0.066539         4
        13         6         7        14     9        0.000000       -0.623536         1
        13         6         7        14     9      180.000000        1.930893         2
        13         6         7        14     9        0.000000        0.729818         3
        13         6         7        14     9      180.000000        0.066539         4
        13         6         7        15     9        0.000000       -0.623536         1
        13         6         7        15     9      180.000000        1.930893         2
        13         6         7        15     9        0.000000        0.729818         3
        13         6         7        15     9      180.000000        0.066539         4

[ pairs ]
;       ai        aj funct
         1         5     1
         1         6     1
         1         8     1
         1         9     1
         1        14     1
         1        15     1
         2        10     1
         2        11     1
         2        12     1
         2        13     1
         3         5     1
         3         6     1
         3         8     1
         3         9     1
         3        14     1
         3        15     1
         4        12     1
         4        13     1
         4        14     1
         4        15     1
         5        14     1
         5        15     1
         6         8     1
         6         9     1
         7         8     1
         7         9     1
         7        10     1
         7        11     1
         8        10     1
         8        11     1
         9        10     1
         9        11     1
        10        12     1
        10        13     1
        11        12     1
        11        13     1
        12        14     1
        12        15     1
        13        14     1
        13        15     1
