A Gromacs structure file written by ASE
 3360
    1SL       O    1   2.153   2.525   3.374
    1SL       S    2   2.201   2.593   3.492
    1SL       O    3   2.211   2.526   3.620
    1SL       C    4   2.359   2.667   3.453
    1SL       C    5   2.344   2.814   3.492
    1SL       C    6   2.201   2.853   3.455
    1SL       C    7   2.112   2.745   3.513
    1SL       H    8   2.439   2.617   3.508
    1SL       H    9   2.376   2.657   3.345
    1SL       H   10   2.417   2.877   3.441
    1SL       H   11   2.359   2.826   3.600
    1SL       H   12   2.191   2.856   3.345
    1SL       H   13   2.174   2.952   3.493
    1SL       H   14   2.015   2.738   3.462
    1SL       H   15   2.096   2.760   3.620
    2SL       O   16   0.177   2.448   0.832
    2SL       S   17   0.245   2.321   0.827
    2SL       O   18   0.207   2.217   0.733
    2SL       C   19   0.420   2.350   0.812
    2SL       C   20   0.483   2.271   0.926
    2SL       C   21   0.387   2.283   1.045
    2SL       C   22   0.250   2.251   0.991
    2SL       H   23   0.456   2.318   0.714
    2SL       H   24   0.438   2.458   0.825
    2SL       H   25   0.583   2.309   0.951
    2SL       H   26   0.494   2.166   0.898
    2SL       H   27   0.390   2.387   1.083
    2SL       H   28   0.415   2.217   1.127
    2SL       H   29   0.169   2.293   1.051
    2SL       H   30   0.236   2.142   0.981
    3SL       O   31   3.242   1.278   0.504
    3SL       S   32   3.173   1.173   0.575
    3SL       O   33   3.243   1.078   0.659
    3SL       C   34   3.041   1.248   0.670
    3SL       C   35   2.915   1.171   0.630
    3SL       C   36   2.929   1.143   0.481
    3SL       C   37   3.068   1.084   0.462
    3SL       H   38   3.063   1.239   0.777
    3SL       H   39   3.034   1.353   0.642
    3SL       H   40   2.825   1.229   0.652
    3SL       H   41   2.909   1.077   0.685
    3SL       H   42   2.920   1.237   0.424
    3SL       H   43   2.852   1.075   0.445
    3SL       H   44   3.106   1.096   0.360
    3SL       H   45   3.070   0.979   0.490
    4SL       O   46   0.741   2.568   2.660
    4SL       S   47   0.717   2.629   2.531
    4SL       O   48   0.678   2.552   2.415
    4SL       C   49   0.602   2.763   2.553
    4SL       C   50   0.671   2.885   2.491
    4SL       C   51   0.819   2.872   2.525
    4SL       C   52   0.858   2.730   2.488
    4SL       H   53   0.507   2.740   2.504
    4SL       H   54   0.586   2.778   2.660
    4SL       H   55   0.629   2.978   2.529
    4SL       H   56   0.658   2.884   2.382
    4SL       H   57   0.833   2.888   2.633
    4SL       H   58   0.880   2.945   2.472
    4SL       H   59   0.946   2.694   2.542
    4SL       H   60   0.874   2.720   2.380
    5SL       O   61   2.444   1.837   2.585
    5SL       S   62   2.550   1.865   2.680
    5SL       O   63   2.680   1.913   2.637
    5SL       C   64   2.485   1.975   2.804
    5SL       C   65   2.516   1.907   2.937
    5SL       C   66   2.495   1.757   2.913
    5SL       C   67   2.572   1.724   2.787
    5SL       H   68   2.533   2.074   2.796
    5SL       H   69   2.378   1.985   2.789
    5SL       H   70   2.451   1.944   3.017
    5SL       H   71   2.620   1.926   2.966
    5SL       H   72   2.388   1.737   2.899
    5SL       H   73   2.530   1.697   2.998
    5SL       H   74   2.535   1.634   2.737
    5SL       H   75   2.679   1.714   2.807
    6SL       O   76   3.186   0.692   3.291
    6SL       S   77   3.277   0.688   3.404
    6SL       O   78   3.231   0.702   3.540
    6SL       C   79   3.377   0.541   3.391
    6SL       C   80   3.521   0.590   3.399
    6SL       C   81   3.525   0.723   3.323
    6SL       C   82   3.409   0.805   3.376
    6SL       H   83   3.352   0.472   3.472
    6SL       H   84   3.357   0.495   3.294
    6SL       H   85   3.591   0.517   3.357
    6SL       H   86   3.549   0.607   3.504
    6SL       H   87   3.512   0.703   3.215
    6SL       H   88   3.620   0.774   3.336
    6SL       H   89   3.376   0.882   3.305
    6SL       H   90   3.434   0.850   3.472
    7SL       O   91   1.727   1.122   3.240
    7SL       S   92   1.662   1.035   3.334
    7SL       O   93   1.682   1.048   3.478
    7SL       C   94   1.487   1.034   3.300
    7SL       C   95   1.450   0.887   3.284
    7SL       C   96   1.568   0.821   3.213
    7SL       C   97   1.692   0.865   3.288
    7SL       H   98   1.433   1.083   3.381
    7SL       H   99   1.471   1.089   3.207
    7SL       H  100   1.357   0.875   3.228
    7SL       H  101   1.436   0.841   3.383
    7SL       H  102   1.572   0.857   3.109
    7SL       H  103   1.559   0.712   3.211
    7SL       H  104   1.783   0.859   3.227
    7SL       H  105   1.705   0.807   3.380
    8SL       O  106   0.679   2.108   2.781
    8SL       S  107   0.721   2.077   2.916
    8SL       O  108   0.651   2.130   3.031
    8SL       C  109   0.734   1.900   2.932
    8SL       C  110   0.875   1.876   2.986
    8SL       C  111   0.965   1.978   2.917
    8SL       C  112   0.895   2.112   2.933
    8SL       H  113   0.656   1.863   3.000
    8SL       H  114   0.722   1.856   2.833
    8SL       H  115   0.908   1.773   2.966
    8SL       H  116   0.877   1.891   3.094
    8SL       H  117   0.974   1.953   2.810
    8SL       H  118   1.065   1.980   2.960
    8SL       H  119   0.925   2.185   2.857
    8SL       H  120   0.911   2.153   3.033
    9SL       O  121   0.623   0.712   1.226
    9SL       S  122   0.660   0.848   1.258
    9SL       O  123   0.567   0.940   1.321
    9SL       C  124   0.811   0.845   1.352
    9SL       C  125   0.906   0.939   1.277
    9SL       C  126   0.878   0.917   1.128
    9SL       C  127   0.728   0.926   1.112
    9SL       H  128   0.793   0.878   1.454
    9SL       H  129   0.850   0.743   1.351
    9SL       H  130   1.011   0.918   1.302
    9SL       H  131   0.885   1.043   1.304
    9SL       H  132   0.914   0.817   1.098
    9SL       H  133   0.929   0.991   1.066
    9SL       H  134   0.691   0.874   1.023
    9SL       H  135   0.694   1.030   1.112
   10SL       O  136   1.383   3.140   2.707
   10SL       S  137   1.353   3.231   2.599
   10SL       O  138   1.423   3.226   2.473
   10SL       C  139   1.177   3.227   2.569
   10SL       C  140   1.132   3.372   2.577
   10SL       C  141   1.214   3.436   2.689
   10SL       C  142   1.358   3.398   2.662
   10SL       H  143   1.157   3.182   2.471
   10SL       H  144   1.130   3.167   2.648
   10SL       H  145   1.024   3.379   2.597
   10SL       H  146   1.152   3.423   2.482
   10SL       H  147   1.181   3.395   2.786
   10SL       H  148   1.201   3.544   2.693
   10SL       H  149   1.421   3.402   2.751
   10SL       H  150   1.401   3.462   2.583
   11SL       O  151   0.620   1.685   0.522
   11SL       S  152   0.609   1.820   0.572
   11SL       O  153   0.613   1.850   0.713
   11SL       C  154   0.730   1.920   0.487
   11SL       C  155   0.651   2.037   0.430
   11SL       C  156   0.517   1.980   0.384
   11SL       C  157   0.465   1.897   0.500
   11SL       H  158   0.808   1.953   0.557
   11SL       H  159   0.774   1.861   0.407
   11SL       H  160   0.704   2.085   0.347
   11SL       H  161   0.634   2.113   0.507
   11SL       H  162   0.533   1.915   0.296
   11SL       H  163   0.446   2.058   0.356
   11SL       H  164   0.394   1.820   0.470
   11SL       H  165   0.420   1.961   0.577
   12SL       O  166   0.449   1.241   1.723
   12SL       S  167   0.309   1.255   1.754
   12SL       O  168   0.206   1.221   1.659
   12SL       C  169   0.276   1.172   1.908
   12SL       C  170   0.208   1.277   1.996
   12SL       C  171   0.277   1.410   1.965
   12SL       C  172   0.279   1.421   1.814
   12SL       H  173   0.214   1.084   1.891
   12SL       H  174   0.372   1.142   1.952
   12SL       H  175   0.216   1.251   2.102
   12SL       H  176   0.102   1.283   1.971
   12SL       H  177   0.379   1.408   2.005
   12SL       H  178   0.225   1.494   2.010
   12SL       H  179   0.358   1.488   1.777
   12SL       H  180   0.182   1.453   1.775
   13SL       O  181   3.245   2.432   1.608
   13SL       S  182   3.284   2.342   1.714
   13SL       O  183   3.351   2.388   1.833
   13SL       C  184   3.142   2.245   1.761
   13SL       C  185   3.188   2.099   1.750
   13SL       C  186   3.280   2.093   1.628
   13SL       C  187   3.378   2.207   1.643
   13SL       H  188   3.110   2.271   1.862
   13SL       H  189   3.062   2.265   1.689
   13SL       H  190   3.103   2.031   1.740
   13SL       H  191   3.244   2.071   1.840
   13SL       H  192   3.220   2.106   1.536
   13SL       H  193   3.332   1.997   1.620
   13SL       H  194   3.422   2.239   1.548
   13SL       H  195   3.458   2.182   1.714
   14SL       O  196   2.133   2.469   1.427
   14SL       S  197   2.007   2.538   1.440
   14SL       O  198   1.883   2.483   1.387
   14SL       C  199   1.982   2.581   1.611
   14SL       C  200   1.956   2.732   1.610
   14SL       C  201   2.047   2.791   1.502
   14SL       C  202   2.026   2.705   1.379
   14SL       H  203   1.899   2.524   1.652
   14SL       H  204   2.074   2.558   1.665
   14SL       H  205   1.975   2.776   1.708
   14SL       H  206   1.851   2.751   1.585
   14SL       H  207   2.151   2.784   1.536
   14SL       H  208   2.024   2.896   1.483
   14SL       H  209   2.111   2.709   1.310
   14SL       H  210   1.934   2.732   1.327
   15SL       O  211   1.161   1.962   1.802
   15SL       S  212   1.077   1.967   1.684
   15SL       O  213   1.114   1.901   1.561
   15SL       C  214   0.912   1.917   1.730
   15SL       C  215   0.822   2.030   1.683
   15SL       C  216   0.899   2.160   1.707
   15SL       C  217   1.037   2.137   1.649
   15SL       H  218   0.888   1.821   1.683
   15SL       H  219   0.908   1.907   1.839
   15SL       H  220   0.726   2.030   1.736
   15SL       H  221   0.801   2.020   1.575
   15SL       H  222   0.906   2.178   1.816
   15SL       H  223   0.850   2.246   1.662
   15SL       H  224   1.113   2.203   1.693
   15SL       H  225   1.036   2.150   1.541
   16SL       O  226   3.043   0.346   3.059
   16SL       S  227   2.992   0.238   2.978
   16SL       O  228   3.066   0.115   2.959
   16SL       C  229   2.827   0.199   3.032
   16SL       C  230   2.741   0.207   2.906
   16SL       C  231   2.796   0.324   2.824
   16SL       C  232   2.946   0.303   2.818
   16SL       H  233   2.825   0.100   3.078
   16SL       H  234   2.796   0.275   3.104
   16SL       H  235   2.635   0.222   2.930
   16SL       H  236   2.750   0.114   2.848
   16SL       H  237   2.773   0.418   2.875
   16SL       H  238   2.752   0.328   2.724
   16SL       H  239   3.001   0.396   2.798
   16SL       H  240   2.972   0.228   2.743
   17SL       O  241   3.315   0.291   1.401
   17SL       S  242   3.434   0.367   1.370
   17SL       O  243   3.530   0.404   1.471
   17SL       C  244   3.519   0.286   1.236
   17SL       C  245   3.538   0.394   1.130
   17SL       C  246   3.412   0.480   1.133
   17SL       C  247   3.388   0.513   1.278
   17SL       H  248   3.614   0.245   1.271
   17SL       H  249   3.455   0.206   1.198
   17SL       H  250   3.555   0.351   1.031
   17SL       H  251   3.625   0.456   1.155
   17SL       H  252   3.327   0.421   1.093
   17SL       H  253   3.421   0.570   1.072
   17SL       H  254   3.283   0.538   1.300
   17SL       H  255   3.453   0.595   1.311
   18SL       O  256   0.174   1.180   3.269
   18SL       S  257   0.275   1.272   3.222
   18SL       O  258   0.408   1.228   3.185
   18SL       C  259   0.206   1.368   3.088
   18SL       C  260   0.228   1.514   3.128
   18SL       C  261   0.207   1.520   3.279
   18SL       C  262   0.289   1.407   3.338
   18SL       H  263   0.256   1.342   2.994
   18SL       H  264   0.100   1.345   3.081
   18SL       H  265   0.160   1.581   3.075
   18SL       H  266   0.331   1.544   3.104
   18SL       H  267   0.100   1.505   3.301
   18SL       H  268   0.235   1.617   3.321
   18SL       H  269   0.253   1.375   3.436
   18SL       H  270   0.394   1.435   3.345
   19SL       O  271   2.046   2.176   0.756
   19SL       S  272   1.948   2.140   0.656
   19SL       O  273   1.977   2.043   0.552
   19SL       C  274   1.797   2.092   0.739
   19SL       C  275   1.688   2.179   0.675
   19SL       C  276   1.752   2.315   0.650
   19SL       C  277   1.883   2.287   0.580
   19SL       H  278   1.779   1.985   0.726
   19SL       H  279   1.808   2.116   0.845
   19SL       H  280   1.601   2.186   0.740
   19SL       H  281   1.656   2.134   0.580
   19SL       H  282   1.770   2.366   0.746
   19SL       H  283   1.687   2.380   0.590
   19SL       H  284   1.956   2.369   0.591
   19SL       H  285   1.868   2.266   0.474
   20SL       O  286   3.362   2.698   3.031
   20SL       S  287   3.390   2.790   3.138
   20SL       O  288   3.372   2.754   3.277
   20SL       C  289   3.554   2.856   3.116
   20SL       C  290   3.536   3.008   3.118
   20SL       C  291   3.404   3.036   3.046
   20SL       C  292   3.302   2.943   3.107
   20SL       H  293   3.620   2.821   3.195
   20SL       H  294   3.591   2.823   3.018
   20SL       H  295   3.620   3.059   3.069
   20SL       H  296   3.530   3.044   3.221
   20SL       H  297   3.416   3.015   2.939
   20SL       H  298   3.374   3.141   3.056
   20SL       H  299   3.217   2.923   3.042
   20SL       H  300   3.267   2.981   3.204
   21SL       O  301   1.530   2.039   0.936
   21SL       S  302   1.547   2.086   1.071
   21SL       O  303   1.677   2.126   1.123
   21SL       C  304   1.430   2.217   1.101
   21SL       C  305   1.355   2.175   1.227
   21SL       C  306   1.338   2.023   1.218
   21SL       C  307   1.474   1.968   1.184
   21SL       H  308   1.482   2.312   1.113
   21SL       H  309   1.362   2.222   1.016
   21SL       H  310   1.258   2.226   1.235
   21SL       H  311   1.414   2.200   1.316
   21SL       H  312   1.266   2.000   1.137
   21SL       H  313   1.299   1.981   1.310
   21SL       H  314   1.470   1.870   1.136
   21SL       H  315   1.538   1.963   1.273
   22SL       O  316   0.973   2.885   3.280
   22SL       S  317   0.914   2.939   3.400
   22SL       O  318   0.964   3.061   3.461
   22SL       C  319   0.738   2.954   3.376
   22SL       C  320   0.675   2.881   3.494
   22SL       C  321   0.764   2.759   3.520
   22SL       C  322   0.906   2.812   3.525
   22SL       H  323   0.709   3.060   3.372
   22SL       H  324   0.712   2.906   3.282
   22SL       H  325   0.572   2.851   3.472
   22SL       H  326   0.674   2.945   3.582
   22SL       H  327   0.753   2.687   3.438
   22SL       H  328   0.737   2.708   3.613
   22SL       H  329   0.981   2.735   3.503
   22SL       H  330   0.928   2.859   3.622
   23SL       O  331   2.928   2.434   3.620
   23SL       S  332   2.981   2.391   3.493
   23SL       O  333   2.951   2.460   3.369
   23SL       C  334   3.158   2.374   3.508
   23SL       C  335   3.188   2.232   3.461
   23SL       C  336   3.073   2.145   3.510
   23SL       C  337   2.946   2.217   3.471
   23SL       H  338   3.208   2.450   3.448
   23SL       H  339   3.184   2.386   3.614
   23SL       H  340   3.285   2.197   3.499
   23SL       H  341   3.192   2.229   3.351
   23SL       H  342   3.079   2.135   3.620
   23SL       H  343   3.076   2.044   3.468
   23SL       H  344   2.860   2.189   3.532
   23SL       H  345   2.923   2.201   3.365
   24SL       O  346   2.231   1.720   1.951
   24SL       S  347   2.170   1.847   1.918
   24SL       O  348   2.170   1.959   2.011
   24SL       C  349   2.237   1.903   1.762
   24SL       C  350   2.115   1.931   1.674
   24SL       C  351   2.013   1.823   1.709
   24SL       C  352   2.004   1.820   1.860
   24SL       H  353   2.299   1.991   1.777
   24SL       H  354   2.297   1.822   1.720
   24SL       H  355   2.141   1.930   1.568
   24SL       H  356   2.074   2.030   1.698
   24SL       H  357   2.048   1.725   1.671
   24SL       H  358   1.915   1.843   1.663
   24SL       H  359   1.967   1.724   1.899
   24SL       H  360   1.942   1.901   1.897
   25SL       O  361   1.703   0.473   0.833
   25SL       S  362   1.582   0.550   0.856
   25SL       O  363   1.458   0.488   0.898
   25SL       C  364   1.621   0.684   0.966
   25SL       C  365   1.573   0.810   0.894
   25SL       C  366   1.604   0.788   0.746
   25SL       C  367   1.550   0.650   0.712
   25SL       H  368   1.571   0.669   1.062
   25SL       H  369   1.729   0.686   0.980
   25SL       H  370   1.623   0.899   0.933
   25SL       H  371   1.465   0.822   0.908
   25SL       H  372   1.713   0.791   0.730
   25SL       H  373   1.559   0.865   0.683
   25SL       H  374   1.598   0.606   0.624
   25SL       H  375   1.442   0.653   0.697
   26SL       O  376   3.202   3.139   2.919
   26SL       S  377   3.129   3.243   2.987
   26SL       O  378   3.155   3.275   3.127
   26SL       C  379   3.140   3.392   2.891
   26SL       C  380   2.995   3.437   2.871
   26SL       C  381   2.913   3.310   2.853
   26SL       C  382   2.954   3.217   2.965
   26SL       H  383   3.200   3.467   2.943
   26SL       H  384   3.186   3.368   2.795
   26SL       H  385   2.986   3.504   2.785
   26SL       H  386   2.960   3.491   2.960
   26SL       H  387   2.938   3.264   2.755
   26SL       H  388   2.806   3.330   2.854
   26SL       H  389   2.935   3.112   2.943
   26SL       H  390   2.904   3.245   3.059
   27SL       O  391   1.707   0.701   0.338
   27SL       S  392   1.639   0.633   0.231
   27SL       O  393   1.622   0.693   0.100
   27SL       C  394   1.710   0.471   0.212
   27SL       C  395   1.592   0.374   0.220
   27SL       C  396   1.497   0.432   0.324
   27SL       C  397   1.479   0.578   0.289
   27SL       H  398   1.764   0.464   0.117
   27SL       H  399   1.779   0.454   0.295
   27SL       H  400   1.625   0.273   0.246
   27SL       H  401   1.541   0.369   0.123
   27SL       H  402   1.543   0.422   0.424
   27SL       H  403   1.402   0.379   0.327
   27SL       H  404   1.448   0.639   0.374
   27SL       H  405   1.408   0.589   0.206
   28SL       O  406   2.918   2.741   0.107
   28SL       S  407   2.859   2.697   0.231
   28SL       O  408   2.940   2.656   0.344
   28SL       C  409   2.742   2.821   0.284
   28SL       C  410   2.611   2.745   0.307
   28SL       C  411   2.605   2.639   0.196
   28SL       C  412   2.739   2.570   0.197
   28SL       H  413   2.778   2.870   0.375
   28SL       H  414   2.731   2.894   0.204
   28SL       H  415   2.525   2.812   0.304
   28SL       H  416   2.613   2.695   0.405
   28SL       H  417   2.588   2.689   0.099
   28SL       H  418   2.523   2.569   0.212
   28SL       H  419   2.763   2.522   0.101
   28SL       H  420   2.745   2.496   0.277
   29SL       O  421   2.541   0.761   2.345
   29SL       S  422   2.598   0.674   2.245
   29SL       O  423   2.538   0.658   2.114
   29SL       C  424   2.770   0.716   2.225
   29SL       C  425   2.845   0.585   2.244
   29SL       C  426   2.771   0.509   2.354
   29SL       C  427   2.625   0.513   2.316
   29SL       H  428   2.787   0.760   2.126
   29SL       H  429   2.797   0.788   2.303
   29SL       H  430   2.950   0.602   2.270
   29SL       H  431   2.843   0.526   2.151
   29SL       H  432   2.787   0.560   2.450
   29SL       H  433   2.808   0.406   2.364
   29SL       H  434   2.558   0.499   2.401
   29SL       H  435   2.602   0.438   2.239
   30SL       O  436   1.988   1.087   1.443
   30SL       S  437   1.852   1.128   1.414
   30SL       O  438   1.816   1.267   1.395
   30SL       C  439   1.792   1.033   1.276
   30SL       C  440   1.661   0.971   1.324
   30SL       C  441   1.684   0.934   1.471
   30SL       C  442   1.743   1.057   1.536
   30SL       H  443   1.778   1.098   1.189
   30SL       H  444   1.866   0.956   1.253
   30SL       H  445   1.634   0.883   1.264
   30SL       H  446   1.580   1.044   1.317
   30SL       H  447   1.755   0.850   1.477
   30SL       H  448   1.591   0.903   1.520
   30SL       H  449   1.800   1.034   1.627
   30SL       H  450   1.665   1.131   1.559
   31SL       O  451   3.620   1.334   2.733
   31SL       S  452   3.564   1.467   2.726
   31SL       O  453   3.620   1.578   2.802
   31SL       C  454   3.550   1.515   2.555
   31SL       C  455   3.405   1.556   2.537
   31SL       C  456   3.322   1.460   2.623
   31SL       C  457   3.389   1.458   2.759
   31SL       H  458   3.620   1.596   2.533
   31SL       H  459   3.574   1.427   2.494
   31SL       H  460   3.375   1.552   2.432
   31SL       H  461   3.390   1.659   2.572
   31SL       H  462   3.325   1.360   2.578
   31SL       H  463   3.218   1.491   2.630
   31SL       H  464   3.367   1.368   2.816
   31SL       H  465   3.361   1.547   2.817
   32SL       O  466   2.246   0.987   1.108
   32SL       S  467   2.143   0.889   1.082
   32SL       O  468   2.069   0.826   1.189
   32SL       C  469   2.029   0.958   0.964
   32SL       C  470   2.021   0.855   0.852
   32SL       C  471   2.162   0.799   0.836
   32SL       C  472   2.209   0.763   0.975
   32SL       H  473   1.932   0.976   1.012
   32SL       H  474   2.070   1.053   0.928
   32SL       H  475   1.984   0.900   0.759
   32SL       H  476   1.952   0.774   0.880
   32SL       H  477   2.227   0.877   0.793
   32SL       H  478   2.165   0.713   0.768
   32SL       H  479   2.318   0.760   0.984
   32SL       H  480   2.166   0.667   1.007
   33SL       O  481   0.999   1.416   1.918
   33SL       S  482   0.895   1.455   2.010
   33SL       O  483   0.758   1.478   1.967
   33SL       C  484   0.895   1.341   2.147
   33SL       C  485   0.906   1.429   2.271
   33SL       C  486   1.000   1.543   2.234
   33SL       C  487   0.950   1.597   2.102
   33SL       H  488   0.803   1.281   2.146
   33SL       H  489   0.982   1.276   2.137
   33SL       H  490   0.943   1.372   2.357
   33SL       H  491   0.807   1.469   2.298
   33SL       H  492   1.102   1.504   2.223
   33SL       H  493   1.002   1.621   2.311
   33SL       H  494   1.028   1.650   2.046
   33SL       H  495   0.864   1.663   2.117
   34SL       O  496   2.223   2.711   2.266
   34SL       S  497   2.133   2.714   2.378
   34SL       O  498   2.160   2.795   2.496
   34SL       C  499   1.969   2.751   2.319
   34SL       C  500   1.881   2.640   2.374
   34SL       C  501   1.965   2.512   2.368
   34SL       C  502   2.098   2.547   2.430
   34SL       H  503   1.938   2.850   2.353
   34SL       H  504   1.971   2.749   2.210
   34SL       H  505   1.788   2.630   2.316
   34SL       H  506   1.854   2.661   2.478
   34SL       H  507   1.979   2.483   2.262
   34SL       H  508   1.917   2.429   2.419
   34SL       H  509   2.179   2.481   2.398
   34SL       H  510   2.092   2.547   2.539
   35SL       O  511   3.020   2.102   1.445
   35SL       S  512   2.880   2.068   1.439
   35SL       O  513   2.835   1.941   1.384
   35SL       C  514   2.809   2.089   1.601
   35SL       C  515   2.689   2.180   1.580
   35SL       C  516   2.730   2.281   1.473
   35SL       C  517   2.790   2.200   1.360
   35SL       H  518   2.782   1.992   1.643
   35SL       H  519   2.884   2.137   1.665
   35SL       H  520   2.660   2.230   1.673
   35SL       H  521   2.603   2.122   1.544
   35SL       H  522   2.806   2.350   1.515
   35SL       H  523   2.646   2.341   1.439
   35SL       H  524   2.859   2.258   1.297
   35SL       H  525   2.712   2.155   1.298
   36SL       O  526   2.717   1.280   0.836
   36SL       S  527   2.665   1.206   0.949
   36SL       O  528   2.696   1.243   1.086
   36SL       C  529   2.488   1.193   0.932
   36SL       C  530   2.458   1.044   0.942
   36SL       C  531   2.573   0.972   0.871
   36SL       C  532   2.700   1.033   0.926
   36SL       H  533   2.438   1.251   1.009
   36SL       H  534   2.461   1.231   0.833
   36SL       H  535   2.361   1.019   0.897
   36SL       H  536   2.456   1.013   1.048
   36SL       H  537   2.566   0.991   0.763
   36SL       H  538   2.570   0.864   0.886
   36SL       H  539   2.786   1.021   0.859
   36SL       H  540   2.725   0.991   1.024
   37SL       O  541   0.934   2.767   0.397
   37SL       S  542   0.937   2.718   0.533
   37SL       O  543   1.059   2.714   0.611
   37SL       C  544   0.811   2.802   0.627
   37SL       C  545   0.728   2.692   0.690
   37SL       C  546   0.719   2.580   0.586
   37SL       C  547   0.861   2.556   0.539
   37SL       H  548   0.857   2.868   0.701
   37SL       H  549   0.751   2.861   0.557
   37SL       H  550   0.628   2.728   0.719
   37SL       H  551   0.777   2.654   0.781
   37SL       H  552   0.656   2.613   0.502
   37SL       H  553   0.675   2.489   0.627
   37SL       H  554   0.866   2.510   0.440
   37SL       H  555   0.917   2.496   0.611
   38SL       O  556   2.009   2.757   0.486
   38SL       S  557   2.109   2.664   0.440
   38SL       O  558   2.184   2.580   0.532
   38SL       C  559   2.038   2.562   0.313
   38SL       C  560   2.133   2.575   0.194
   38SL       C  561   2.180   2.720   0.193
   38SL       C  562   2.224   2.750   0.334
   38SL       H  563   2.028   2.459   0.348
   38SL       H  564   1.939   2.602   0.288
   38SL       H  565   2.083   2.548   0.100
   38SL       H  566   2.218   2.508   0.207
   38SL       H  567   2.096   2.786   0.164
   38SL       H  568   2.261   2.736   0.121
   38SL       H  569   2.223   2.857   0.358
   38SL       H  570   2.324   2.710   0.354
   39SL       O  571   0.344   0.707   2.302
   39SL       S  572   0.433   0.821   2.294
   39SL       O  573   0.384   0.954   2.267
   39SL       C  574   0.535   0.824   2.440
   39SL       C  575   0.678   0.830   2.388
   39SL       C  576   0.682   0.741   2.264
   39SL       C  577   0.564   0.784   2.179
   39SL       H  578   0.509   0.911   2.502
   39SL       H  579   0.517   0.732   2.496
   39SL       H  580   0.750   0.796   2.464
   39SL       H  581   0.704   0.933   2.361
   39SL       H  582   0.671   0.636   2.294
   39SL       H  583   0.776   0.751   2.209
   39SL       H  584   0.531   0.706   2.109
   39SL       H  585   0.587   0.875   2.123
   40SL       O  586   3.573   0.817   2.183
   40SL       S  587   3.459   0.866   2.108
   40SL       O  588   3.326   0.869   2.165
   40SL       C  589   3.499   1.027   2.044
   40SL       C  590   3.472   1.018   1.894
   40SL       C  591   3.516   0.878   1.852
   40SL       C  592   3.453   0.782   1.951
   40SL       H  593   3.438   1.104   2.093
   40SL       H  594   3.605   1.046   2.063
   40SL       H  595   3.526   1.095   1.839
   40SL       H  596   3.365   1.030   1.874
   40SL       H  597   3.626   0.871   1.857
   40SL       H  598   3.486   0.855   1.749
   40SL       H  599   3.505   0.687   1.958
   40SL       H  600   3.347   0.765   1.927
   41SL       O  601   1.613   1.351   1.388
   41SL       S  602   1.630   1.420   1.262
   41SL       O  603   1.762   1.446   1.207
   41SL       C  604   1.530   1.339   1.139
   41SL       C  605   1.445   1.451   1.078
   41SL       C  606   1.409   1.544   1.193
   41SL       C  607   1.538   1.573   1.266
   41SL       H  608   1.594   1.290   1.065
   41SL       H  609   1.468   1.265   1.189
   41SL       H  610   1.356   1.410   1.029
   41SL       H  611   1.503   1.506   1.003
   41SL       H  612   1.338   1.493   1.261
   41SL       H  613   1.361   1.636   1.159
   41SL       H  614   1.523   1.603   1.370
   41SL       H  615   1.597   1.648   1.214
   42SL       O  616   2.653   3.407   1.677
   42SL       S  617   2.789   3.366   1.705
   42SL       O  618   2.857   3.265   1.626
   42SL       C  619   2.891   3.512   1.712
   42SL       C  620   2.963   3.503   1.847
   42SL       C  621   2.861   3.445   1.945
   42SL       C  622   2.803   3.323   1.878
   42SL       H  623   2.961   3.513   1.628
   42SL       H  624   2.826   3.599   1.708
   42SL       H  625   2.999   3.601   1.879
   42SL       H  626   3.049   3.436   1.839
   42SL       H  627   2.782   3.520   1.964
   42SL       H  628   2.907   3.420   2.041
   42SL       H  629   2.704   3.296   1.916
   42SL       H  630   2.870   3.237   1.885
   43SL       O  631   3.488   0.508   2.795
   43SL       S  632   3.360   0.527   2.858
   43SL       O  633   3.283   0.416   2.912
   43SL       C  634   3.376   0.652   2.985
   43SL       C  635   3.269   0.755   2.953
   43SL       C  636   3.262   0.764   2.801
   43SL       C  637   3.255   0.622   2.750
   43SL       H  638   3.364   0.607   3.084
   43SL       H  639   3.476   0.696   2.976
   43SL       H  640   3.291   0.852   2.999
   43SL       H  641   3.172   0.721   2.992
   43SL       H  642   3.354   0.813   2.763
   43SL       H  643   3.177   0.824   2.767
   43SL       H  644   3.289   0.611   2.647
   43SL       H  645   3.153   0.583   2.759
   44SL       O  646   1.788   1.663   1.438
   44SL       S  647   1.871   1.666   1.320
   44SL       O  648   1.815   1.678   1.187
   44SL       C  649   1.995   1.792   1.341
   44SL       C  650   2.128   1.721   1.316
   44SL       C  651   2.114   1.581   1.375
   44SL       C  652   1.982   1.527   1.323
   44SL       H  653   1.978   1.875   1.272
   44SL       H  654   1.990   1.828   1.444
   44SL       H  655   2.212   1.776   1.361
   44SL       H  656   2.147   1.714   1.208
   44SL       H  657   2.111   1.589   1.485
   44SL       H  658   2.198   1.517   1.349
   44SL       H  659   1.941   1.448   1.386
   44SL       H  660   1.993   1.491   1.220
   45SL       O  661   3.092   0.308   0.446
   45SL       S  662   3.124   0.403   0.342
   45SL       O  663   3.138   0.364   0.203
   45SL       C  664   3.009   0.539   0.352
   45SL       C  665   3.097   0.664   0.360
   45SL       C  666   3.217   0.626   0.446
   45SL       C  667   3.269   0.496   0.390
   45SL       H  668   2.944   0.540   0.264
   45SL       H  669   2.950   0.527   0.443
   45SL       H  670   3.041   0.749   0.403
   45SL       H  671   3.131   0.693   0.260
   45SL       H  672   3.184   0.612   0.551
   45SL       H  673   3.294   0.704   0.446
   45SL       H  674   3.327   0.438   0.463
   45SL       H  675   3.329   0.513   0.300
   46SL       O  676   1.654   2.238   3.186
   46SL       S  677   1.555   2.187   3.095
   46SL       O  678   1.566   2.055   3.035
   46SL       C  679   1.394   2.202   3.171
   46SL       C  680   1.310   2.278   3.069
   46SL       C  681   1.403   2.382   3.005
   46SL       C  682   1.528   2.306   2.965
   46SL       H  683   1.354   2.103   3.193
   46SL       H  684   1.405   2.260   3.263
   46SL       H  685   1.223   2.326   3.116
   46SL       H  686   1.273   2.210   2.992
   46SL       H  687   1.427   2.459   3.080
   46SL       H  688   1.356   2.431   2.920
   46SL       H  689   1.615   2.371   2.956
   46SL       H  690   1.512   2.251   2.872
   47SL       O  691   2.257   2.191   2.937
   47SL       S  692   2.150   2.179   2.841
   47SL       O  693   2.160   2.235   2.707
   47SL       C  694   2.103   2.008   2.829
   47SL       C  695   1.952   2.006   2.854
   47SL       C  696   1.926   2.112   2.961
   47SL       C  697   1.998   2.237   2.916
   47SL       H  698   2.129   1.968   2.731
   47SL       H  699   2.155   1.952   2.907
   47SL       H  700   1.918   1.907   2.886
   47SL       H  701   1.898   2.033   2.762
   47SL       H  702   1.967   2.077   3.058
   47SL       H  703   1.819   2.130   2.975
   47SL       H  704   2.022   2.305   2.998
   47SL       H  705   1.941   2.290   2.839
   48SL       O  706   0.441   2.736   3.190
   48SL       S  707   0.320   2.795   3.243
   48SL       O  708   0.262   2.751   3.368
   48SL       C  709   0.342   2.972   3.249
   48SL       C  710   0.222   3.029   3.173
   48SL       C  711   0.195   2.933   3.057
   48SL       C  712   0.194   2.794   3.117
   48SL       H  713   0.347   3.006   3.352
   48SL       H  714   0.435   2.996   3.197
   48SL       H  715   0.242   3.131   3.138
   48SL       H  716   0.134   3.032   3.239
   48SL       H  717   0.277   2.942   2.983
   48SL       H  718   0.102   2.956   3.006
   48SL       H  719   0.216   2.716   3.044
   48SL       H  720   0.098   2.773   3.166
   49SL       O  721   3.143   2.773   2.769
   49SL       S  722   3.116   2.669   2.866
   49SL       O  723   3.219   2.577   2.910
   49SL       C  724   3.041   2.744   3.009
   49SL       C  725   2.912   2.665   3.031
   49SL       C  726   2.857   2.632   2.893
   49SL       C  727   2.974   2.576   2.814
   49SL       H  728   3.108   2.739   3.094
   49SL       H  729   3.018   2.848   2.985
   49SL       H  730   2.840   2.722   3.091
   49SL       H  731   2.934   2.572   3.085
   49SL       H  732   2.821   2.725   2.845
   49SL       H  733   2.774   2.562   2.897
   49SL       H  734   2.961   2.585   2.706
   49SL       H  735   2.992   2.471   2.840
   50SL       O  736   1.739   3.421   1.813
   50SL       S  737   1.800   3.387   1.687
   50SL       O  738   1.914   3.297   1.678
   50SL       C  739   1.672   3.329   1.577
   50SL       C  740   1.686   3.414   1.451
   50SL       C  741   1.723   3.554   1.499
   50SL       C  742   1.837   3.536   1.597
   50SL       H  743   1.685   3.222   1.557
   50SL       H  744   1.575   3.346   1.625
   50SL       H  745   1.593   3.414   1.393
   50SL       H  746   1.766   3.375   1.387
   50SL       H  747   1.636   3.599   1.550
   50SL       H  748   1.750   3.620   1.417
   50SL       H  749   1.846   3.620   1.667
   50SL       H  750   1.931   3.521   1.545
   51SL       O  751   0.872   0.354   0.566
   51SL       S  752   0.878   0.230   0.641
   51SL       O  753   0.889   0.101   0.575
   51SL       C  754   1.008   0.244   0.762
   51SL       C  755   0.942   0.209   0.895
   51SL       C  756   0.801   0.268   0.889
   51SL       C  757   0.743   0.225   0.757
   51SL       H  758   1.090   0.176   0.737
   51SL       H  759   1.043   0.347   0.763
   51SL       H  760   0.999   0.248   0.980
   51SL       H  761   0.935   0.100   0.907
   51SL       H  762   0.808   0.378   0.894
   51SL       H  763   0.739   0.236   0.973
   51SL       H  764   0.662   0.290   0.722
   51SL       H  765   0.707   0.121   0.762
   52SL       O  766   0.477   3.195   3.113
   52SL       S  767   0.447   3.320   3.178
   52SL       O  768   0.418   3.327   3.320
   52SL       C  769   0.576   3.437   3.140
   52SL       C  770   0.504   3.559   3.084
   52SL       C  771   0.387   3.505   3.002
   52SL       C  772   0.317   3.403   3.089
   52SL       H  773   0.635   3.460   3.229
   52SL       H  774   0.641   3.392   3.064
   52SL       H  775   0.570   3.621   3.024
   52SL       H  776   0.465   3.620   3.167
   52SL       H  777   0.426   3.457   2.911
   52SL       H  778   0.319   3.585   2.970
   52SL       H  779   0.259   3.330   3.032
   52SL       H  780   0.253   3.452   3.163
   53SL       O  781   1.390   1.878   3.105
   53SL       S  782   1.459   1.802   3.003
   53SL       O  783   1.429   1.819   2.862
   53SL       C  784   1.634   1.820   3.028
   53SL       C  785   1.688   1.677   3.034
   53SL       C  786   1.582   1.595   3.109
   53SL       C  787   1.450   1.628   3.043
   53SL       H  788   1.678   1.877   2.946
   53SL       H  789   1.650   1.871   3.122
   53SL       H  790   1.785   1.673   3.085
   53SL       H  791   1.701   1.637   2.933
   53SL       H  792   1.581   1.626   3.215
   53SL       H  793   1.603   1.488   3.105
   53SL       H  794   1.364   1.610   3.108
   53SL       H  795   1.438   1.573   2.949
   54SL       O  796   2.776   1.877   3.561
   54SL       S  797   2.736   1.789   3.454
   54SL       O  798   2.796   1.797   3.322
   54SL       C  799   2.748   1.621   3.513
   54SL       C  800   2.611   1.560   3.484
   54SL       C  801   2.508   1.670   3.512
   54SL       C  802   2.559   1.793   3.438
   54SL       H  803   2.828   1.568   3.461
   54SL       H  804   2.768   1.623   3.620
   54SL       H  805   2.592   1.472   3.547
   54SL       H  806   2.604   1.529   3.379
   54SL       H  807   2.505   1.690   3.620
   54SL       H  808   2.408   1.642   3.479
   54SL       H  809   2.520   1.886   3.479
   54SL       H  810   2.535   1.787   3.331
   55SL       O  811   2.583   3.148   2.132
   55SL       S  812   2.648   3.080   2.241
   55SL       O  813   2.773   3.008   2.224
   55SL       C  814   2.664   3.193   2.377
   55SL       C  815   2.601   3.122   2.497
   55SL       C  816   2.480   3.047   2.441
   55SL       C  817   2.530   2.971   2.320
   55SL       H  818   2.770   3.217   2.394
   55SL       H  819   2.609   3.285   2.353
   55SL       H  820   2.572   3.193   2.575
   55SL       H  821   2.672   3.051   2.540
   55SL       H  822   2.402   3.119   2.412
   55SL       H  823   2.436   2.980   2.515
   55SL       H  824   2.450   2.946   2.249
   55SL       H  825   2.583   2.880   2.350
   56SL       O  826   0.100   2.413   2.489
   56SL       S  827   0.223   2.420   2.415
   56SL       O  828   0.286   2.547   2.383
   56SL       C  829   0.343   2.313   2.492
   56SL       C  830   0.392   2.222   2.380
   56SL       C  831   0.271   2.192   2.293
   56SL       C  832   0.206   2.326   2.264
   56SL       H  833   0.423   2.372   2.537
   56SL       H  834   0.292   2.255   2.570
   56SL       H  835   0.437   2.130   2.421
   56SL       H  836   0.469   2.273   2.321
   56SL       H  837   0.201   2.127   2.348
   56SL       H  838   0.298   2.140   2.201
   56SL       H  839   0.100   2.317   2.238
   56SL       H  840   0.259   2.379   2.185
   57SL       O  841   2.550   1.162   2.737
   57SL       S  842   2.626   1.212   2.625
   57SL       O  843   2.592   1.177   2.488
   57SL       C  844   2.636   1.389   2.637
   57SL       C  845   2.785   1.421   2.628
   57SL       C  846   2.857   1.309   2.704
   57SL       C  847   2.799   1.179   2.651
   57SL       H  848   2.579   1.437   2.557
   57SL       H  849   2.596   1.419   2.735
   57SL       H  850   2.808   1.519   2.671
   57SL       H  851   2.818   1.421   2.524
   57SL       H  852   2.836   1.319   2.812
   57SL       H  853   2.965   1.313   2.690
   57SL       H  854   2.810   1.096   2.721
   57SL       H  855   2.843   1.153   2.555
   58SL       O  856   0.605   2.669   1.699
   58SL       S  857   0.567   2.808   1.693
   58SL       O  858   0.450   2.859   1.760
   58SL       C  859   0.708   2.907   1.739
   58SL       C  860   0.726   3.006   1.625
   58SL       C  861   0.694   2.929   1.496
   58SL       C  862   0.562   2.859   1.522
   58SL       H  863   0.689   2.957   1.835
   58SL       H  864   0.795   2.841   1.748
   58SL       H  865   0.828   3.046   1.623
   58SL       H  866   0.657   3.090   1.636
   58SL       H  867   0.773   2.855   1.478
   58SL       H  868   0.689   2.995   1.409
   58SL       H  869   0.547   2.772   1.458
   58SL       H  870   0.478   2.929   1.511
   59SL       O  871   2.657   2.835   2.943
   59SL       S  872   2.622   2.971   2.908
   59SL       O  873   2.662   3.031   2.782
   59SL       C  874   2.446   2.990   2.928
   59SL       C  875   2.430   3.112   3.020
   59SL       C  876   2.544   3.103   3.121
   59SL       C  877   2.670   3.080   3.041
   59SL       H  878   2.398   3.005   2.831
   59SL       H  879   2.407   2.900   2.976
   59SL       H  880   2.332   3.112   3.069
   59SL       H  881   2.439   3.204   2.962
   59SL       H  882   2.525   3.018   3.190
   59SL       H  883   2.551   3.194   3.182
   59SL       H  884   2.750   3.033   3.100
   59SL       H  885   2.706   3.173   2.997
   60SL       O  886   1.120   1.800   2.377
   60SL       S  887   1.249   1.858   2.405
   60SL       O  888   1.266   1.969   2.497
   60SL       C  889   1.361   1.727   2.451
   60SL       C  890   1.481   1.742   2.358
   60SL       C  891   1.424   1.784   2.223
   60SL       C  892   1.330   1.899   2.251
   60SL       H  893   1.388   1.736   2.557
   60SL       H  894   1.310   1.631   2.434
   60SL       H  895   1.538   1.648   2.351
   60SL       H  896   1.548   1.819   2.396
   60SL       H  897   1.369   1.699   2.178
   60SL       H  898   1.503   1.813   2.153
   60SL       H  899   1.254   1.912   2.173
   60SL       H  900   1.385   1.992   2.266
   61SL       O  901   2.133   1.049   0.694
   61SL       S  902   2.035   1.156   0.690
   61SL       O  903   1.945   1.181   0.801
   61SL       C  904   2.119   1.307   0.648
   61SL       C  905   2.042   1.362   0.528
   61SL       C  906   2.002   1.241   0.444
   61SL       C  907   1.940   1.142   0.540
   61SL       H  908   2.118   1.376   0.733
   61SL       H  909   2.222   1.283   0.620
   61SL       H  910   2.103   1.433   0.470
   61SL       H  911   1.952   1.415   0.561
   61SL       H  912   2.092   1.198   0.397
   61SL       H  913   1.933   1.268   0.363
   61SL       H  914   1.943   1.039   0.504
   61SL       H  915   1.837   1.170   0.564
   62SL       O  916   1.911   1.114   2.289
   62SL       S  917   2.002   1.093   2.399
   62SL       O  918   2.138   1.048   2.379
   62SL       C  919   2.005   1.241   2.498
   62SL       C  920   1.974   1.194   2.640
   62SL       C  921   1.871   1.083   2.627
   62SL       C  922   1.924   0.989   2.521
   62SL       H  923   2.102   1.290   2.491
   62SL       H  924   1.926   1.308   2.462
   62SL       H  925   1.937   1.277   2.702
   62SL       H  926   2.065   1.155   2.687
   62SL       H  927   1.775   1.126   2.594
   62SL       H  928   1.853   1.031   2.721
   62SL       H  929   1.846   0.929   2.473
   62SL       H  930   2.001   0.923   2.562
   63SL       O  931   2.082   3.293   0.367
   63SL       S  932   2.074   3.156   0.321
   63SL       O  933   2.190   3.070   0.313
   63SL       C  934   1.946   3.073   0.414
   63SL       C  935   1.853   3.013   0.309
   63SL       C  936   1.846   3.116   0.195
   63SL       C  937   1.989   3.153   0.164
   63SL       H  938   1.991   2.996   0.478
   63SL       H  939   1.894   3.147   0.474
   63SL       H  940   1.754   2.992   0.350
   63SL       H  941   1.895   2.919   0.270
   63SL       H  942   1.790   3.204   0.230
   63SL       H  943   1.794   3.076   0.108
   63SL       H  944   1.998   3.251   0.115
   63SL       H  945   2.037   3.077   0.102
   64SL       O  946   1.928   3.484   3.356
   64SL       S  947   1.881   3.395   3.253
   64SL       O  948   1.962   3.286   3.202
   64SL       C  949   1.722   3.330   3.302
   64SL       C  950   1.629   3.360   3.186
   64SL       C  951   1.670   3.497   3.132
   64SL       C  952   1.821   3.491   3.115
   64SL       H  953   1.730   3.223   3.323
   64SL       H  954   1.690   3.383   3.392
   64SL       H  955   1.524   3.359   3.217
   64SL       H  956   1.641   3.284   3.107
   64SL       H  957   1.643   3.574   3.205
   64SL       H  958   1.620   3.521   3.038
   64SL       H  959   1.867   3.590   3.116
   64SL       H  960   1.848   3.438   3.023
   65SL       O  961   3.239   2.695   2.201
   65SL       S  962   3.251   2.695   2.057
   65SL       O  963   3.368   2.643   1.990
   65SL       C  964   3.105   2.619   1.988
   65SL       C  965   3.051   2.721   1.888
   65SL       C  966   3.074   2.859   1.951
   65SL       C  967   3.218   2.860   1.996
   65SL       H  968   3.131   2.524   1.941
   65SL       H  969   3.033   2.603   2.069
   65SL       H  970   2.945   2.704   1.867
   65SL       H  971   3.106   2.714   1.793
   65SL       H  972   3.007   2.871   2.037
   65SL       H  973   3.053   2.940   1.880
   65SL       H  974   3.237   2.933   2.076
   65SL       H  975   3.286   2.878   1.912
   66SL       O  976   2.315   3.441   0.359
   66SL       S  977   2.404   3.433   0.246
   66SL       O  978   2.377   3.503   0.121
   66SL       C  979   2.568   3.474   0.300
   66SL       C  980   2.655   3.357   0.255
   66SL       C  981   2.570   3.232   0.273
   66SL       C  982   2.437   3.262   0.209
   66SL       H  983   2.600   3.569   0.257
   66SL       H  984   2.567   3.482   0.409
   66SL       H  985   2.748   3.352   0.313
   66SL       H  986   2.682   3.369   0.149
   66SL       H  987   2.557   3.212   0.381
   66SL       H  988   2.618   3.144   0.229
   66SL       H  989   2.356   3.200   0.248
   66SL       H  990   2.442   3.252   0.100
   67SL       O  991   1.141   1.953   3.295
   67SL       S  992   1.134   2.064   3.387
   67SL       O  993   1.251   2.139   3.426
   67SL       C  994   1.009   2.177   3.330
   67SL       C  995   0.915   2.197   3.450
   67SL       C  996   0.905   2.060   3.518
   67SL       C  997   1.048   2.011   3.534
   67SL       H  998   1.055   2.271   3.298
   67SL       H  999   0.956   2.131   3.247
   67SL       H 1000   0.817   2.233   3.418
   67SL       H 1001   0.958   2.270   3.519
   67SL       H 1002   0.849   1.991   3.453
   67SL       H 1003   0.854   2.066   3.614
   67SL       H 1004   1.055   1.902   3.544
   67SL       H 1005   1.096   2.059   3.620
   68SL       O 1006   0.455   3.146   0.704
   68SL       S 1007   0.433   3.288   0.689
   68SL       O 1008   0.494   3.385   0.778
   68SL       C 1009   0.469   3.334   0.521
   68SL       C 1010   0.343   3.407   0.472
   68SL       C 1011   0.225   3.334   0.535
   68SL       C 1012   0.258   3.320   0.682
   68SL       H 1013   0.558   3.397   0.517
   68SL       H 1014   0.485   3.243   0.463
   68SL       H 1015   0.337   3.407   0.363
   68SL       H 1016   0.345   3.511   0.506
   68SL       H 1017   0.215   3.234   0.488
   68SL       H 1018   0.131   3.387   0.519
   68SL       H 1019   0.204   3.238   0.730
   68SL       H 1020   0.238   3.413   0.736
   69SL       O 1021   1.149   0.597   3.365
   69SL       S 1022   1.093   0.645   3.489
   69SL       O 1023   1.166   0.639   3.614
   69SL       C 1024   1.033   0.811   3.464
   69SL       C 1025   0.887   0.807   3.511
   69SL       C 1026   0.832   0.672   3.468
   69SL       C 1027   0.933   0.569   3.513
   69SL       H 1028   1.093   0.882   3.521
   69SL       H 1029   1.039   0.834   3.358
   69SL       H 1030   0.830   0.890   3.468
   69SL       H 1031   0.882   0.816   3.620
   69SL       H 1032   0.822   0.670   3.358
   69SL       H 1033   0.733   0.652   3.510
   69SL       H 1034   0.928   0.475   3.456
   69SL       H 1035   0.922   0.548   3.620
   70SL       O 1036   0.613   3.518   0.978
   70SL       S 1037   0.517   3.520   1.086
   70SL       O 1038   0.524   3.620   1.191
   70SL       C 1039   0.353   3.520   1.016
   70SL       C 1040   0.282   3.403   1.084
   70SL       C 1041   0.387   3.292   1.100
   70SL       C 1042   0.508   3.359   1.160
   70SL       H 1043   0.304   3.615   1.035
   70SL       H 1044   0.362   3.503   0.909
   70SL       H 1045   0.196   3.369   1.026
   70SL       H 1046   0.246   3.433   1.183
   70SL       H 1047   0.411   3.252   1.000
   70SL       H 1048   0.351   3.210   1.161
   70SL       H 1049   0.601   3.304   1.140
   70SL       H 1050   0.496   3.372   1.268
   71SL       O 1051   1.934   0.614   1.891
   71SL       S 1052   2.041   0.596   1.796
   71SL       O 1053   2.135   0.702   1.766
   71SL       C 1054   2.131   0.449   1.840
   71SL       C 1055   2.134   0.364   1.713
   71SL       C 1056   1.998   0.384   1.647
   71SL       C 1057   1.974   0.533   1.643
   71SL       H 1058   2.232   0.475   1.875
   71SL       H 1059   2.077   0.397   1.920
   71SL       H 1060   2.153   0.258   1.736
   71SL       H 1061   2.213   0.399   1.646
   71SL       H 1062   1.920   0.334   1.707
   71SL       H 1063   1.994   0.340   1.547
   71SL       H 1064   1.868   0.560   1.636
   71SL       H 1065   2.030   0.580   1.561
   72SL       O 1066   2.524   0.975   2.015
   72SL       S 1067   2.469   1.028   2.138
   72SL       O 1068   2.544   1.026   2.263
   72SL       C 1069   2.411   1.194   2.108
   72SL       C 1070   2.266   1.194   2.156
   72SL       C 1071   2.208   1.058   2.118
   72SL       C 1072   2.308   0.955   2.166
   72SL       H 1073   2.473   1.266   2.162
   72SL       H 1074   2.417   1.213   2.001
   72SL       H 1075   2.210   1.276   2.110
   72SL       H 1076   2.262   1.207   2.265
   72SL       H 1077   2.198   1.052   2.008
   72SL       H 1078   2.110   1.042   2.161
   72SL       H 1079   2.301   0.860   2.113
   72SL       H 1080   2.298   0.938   2.274
   73SL       O 1081   2.119   3.000   1.652
   73SL       S 1082   2.151   3.047   1.784
   73SL       O 1083   2.213   3.176   1.807
   73SL       C 1084   2.004   3.034   1.885
   73SL       C 1085   2.046   2.954   2.007
   73SL       C 1086   2.144   2.848   1.957
   73SL       C 1087   2.244   2.922   1.870
   73SL       H 1088   1.967   3.134   1.911
   73SL       H 1089   1.928   2.981   1.828
   73SL       H 1090   1.960   2.909   2.057
   73SL       H 1091   2.097   3.019   2.080
   73SL       H 1092   2.089   2.774   1.897
   73SL       H 1093   2.193   2.795   2.039
   73SL       H 1094   2.294   2.857   1.798
   73SL       H 1095   2.319   2.972   1.932
   74SL       O 1096   2.764   2.693   1.741
   74SL       S 1097   2.623   2.714   1.764
   74SL       O 1098   2.523   2.675   1.666
   74SL       C 1099   2.580   2.646   1.922
   74SL       C 1100   2.511   2.759   1.997
   74SL       C 1101   2.586   2.887   1.959
   74SL       C 1102   2.596   2.885   1.808
   74SL       H 1103   2.515   2.559   1.909
   74SL       H 1104   2.673   2.616   1.973
   74SL       H 1105   2.513   2.743   2.106
   74SL       H 1106   2.407   2.767   1.966
   74SL       H 1107   2.687   2.886   2.004
   74SL       H 1108   2.535   2.977   1.994
   74SL       H 1109   2.679   2.946   1.770
   74SL       H 1110   2.502   2.917   1.761
   75SL       O 1111   3.174   3.196   0.897
   75SL       S 1112   3.159   3.292   1.003
   75SL       O 1113   3.139   3.252   1.141
   75SL       C 1114   3.295   3.407   0.996
   75SL       C 1115   3.231   3.545   0.992
   75SL       C 1116   3.105   3.531   0.906
   75SL       C 1117   3.032   3.409   0.959
   75SL       H 1118   3.360   3.394   1.083
   75SL       H 1119   3.351   3.387   0.904
   75SL       H 1120   3.299   3.620   0.951
   75SL       H 1121   3.203   3.577   1.093
   75SL       H 1122   3.135   3.514   0.801
   75SL       H 1123   3.043   3.620   0.909
   75SL       H 1124   2.965   3.364   0.885
   75SL       H 1125   2.976   3.434   1.050
   76SL       O 1126   3.242   3.434   2.225
   76SL       S 1127   3.197   3.468   2.357
   76SL       O 1128   3.172   3.605   2.397
   76SL       C 1129   3.052   3.370   2.395
   76SL       C 1130   3.084   3.302   2.527
   76SL       C 1131   3.233   3.266   2.522
   76SL       C 1132   3.304   3.392   2.477
   76SL       H 1133   2.964   3.434   2.401
   76SL       H 1134   3.039   3.297   2.315
   76SL       H 1135   3.022   3.213   2.542
   76SL       H 1136   3.066   3.370   2.611
   76SL       H 1137   3.248   3.185   2.448
   76SL       H 1138   3.270   3.230   2.618
   76SL       H 1139   3.402   3.371   2.432
   76SL       H 1140   3.316   3.462   2.561
   77SL       O 1141   0.435   0.692   0.162
   77SL       S 1142   0.327   0.754   0.234
   77SL       O 1143   0.271   0.882   0.195
   77SL       C 1144   0.194   0.636   0.251
   77SL       C 1145   0.164   0.631   0.400
   77SL       C 1146   0.299   0.643   0.471
   77SL       C 1147   0.369   0.761   0.407
   77SL       H 1148   0.108   0.668   0.192
   77SL       H 1149   0.230   0.539   0.215
   77SL       H 1150   0.112   0.538   0.427
   77SL       H 1151   0.100   0.715   0.429
   77SL       H 1152   0.357   0.550   0.455
   77SL       H 1153   0.288   0.656   0.579
   77SL       H 1154   0.478   0.757   0.419
   77SL       H 1155   0.331   0.855   0.447
   78SL       O 1156   1.226   0.272   1.395
   78SL       S 1157   1.271   0.329   1.519
   78SL       O 1158   1.214   0.291   1.647
   78SL       C 1159   1.449   0.312   1.528
   78SL       C 1160   1.501   0.453   1.555
   78SL       C 1161   1.411   0.548   1.475
   78SL       C 1162   1.269   0.507   1.506
   78SL       H 1163   1.476   0.242   1.606
   78SL       H 1164   1.484   0.276   1.431
   78SL       H 1165   1.606   0.463   1.526
   78SL       H 1166   1.492   0.477   1.662
   78SL       H 1167   1.431   0.534   1.367
   78SL       H 1168   1.430   0.652   1.499
   78SL       H 1169   1.198   0.537   1.429
   78SL       H 1170   1.237   0.547   1.603
   79SL       O 1171   2.741   2.552   0.515
   79SL       S 1172   2.828   2.639   0.592
   79SL       O 1173   2.834   2.782   0.569
   79SL       C 1174   2.798   2.609   0.765
   79SL       C 1175   2.935   2.579   0.825
   79SL       C 1176   3.010   2.497   0.719
   79SL       C 1177   2.994   2.573   0.589
   79SL       H 1178   2.751   2.697   0.811
   79SL       H 1179   2.731   2.523   0.774
   79SL       H 1180   2.926   2.524   0.919
   79SL       H 1181   2.989   2.672   0.845
   79SL       H 1182   2.964   2.397   0.711
   79SL       H 1183   3.115   2.483   0.745
   79SL       H 1184   3.006   2.509   0.501
   79SL       H 1185   3.063   2.657   0.584
   80SL       O 1186   2.334   0.685   1.194
   80SL       S 1187   2.472   0.692   1.234
   80SL       O 1188   2.577   0.625   1.159
   80SL       C 1189   2.517   0.864   1.254
   80SL       C 1190   2.576   0.873   1.394
   80SL       C 1191   2.494   0.778   1.481
   80SL       C 1192   2.487   0.647   1.406
   80SL       H 1193   2.588   0.893   1.176
   80SL       H 1194   2.426   0.923   1.246
   80SL       H 1195   2.573   0.975   1.432
   80SL       H 1196   2.681   0.840   1.393
   80SL       H 1197   2.393   0.820   1.495
   80SL       H 1198   2.538   0.765   1.580
   80SL       H 1199   2.401   0.586   1.435
   80SL       H 1200   2.579   0.590   1.417
   81SL       O 1201   2.796   1.256   1.322
   81SL       S 1202   2.923   1.318   1.294
   81SL       O 1203   2.990   1.404   1.391
   81SL       C 1204   3.037   1.193   1.239
   81SL       C 1205   3.092   1.244   1.106
   81SL       C 1206   2.974   1.312   1.036
   81SL       C 1207   2.913   1.405   1.138
   81SL       H 1208   3.116   1.178   1.314
   81SL       H 1209   2.981   1.100   1.225
   81SL       H 1210   3.132   1.162   1.046
   81SL       H 1211   3.172   1.316   1.123
   81SL       H 1212   2.901   1.236   1.005
   81SL       H 1213   3.006   1.366   0.946
   81SL       H 1214   2.808   1.429   1.117
   81SL       H 1215   2.971   1.497   1.148
   82SL       O 1216   0.752   3.215   3.131
   82SL       S 1217   0.866   3.300   3.155
   82SL       O 1218   0.852   3.430   3.218
   82SL       C 1219   0.989   3.206   3.243
   82SL       C 1220   1.117   3.221   3.160
   82SL       C 1221   1.073   3.220   3.013
   82SL       C 1222   0.958   3.319   3.004
   82SL       H 1223   1.001   3.244   3.345
   82SL       H 1224   0.957   3.101   3.245
   82SL       H 1225   1.188   3.141   3.181
   82SL       H 1226   1.165   3.317   3.183
   82SL       H 1227   1.038   3.119   2.987
   82SL       H 1228   1.154   3.246   2.946
   82SL       H 1229   0.892   3.300   2.918
   82SL       H 1230   0.995   3.422   3.000
   83SL       O 1231   3.034   1.948   1.027
   83SL       S 1232   2.991   2.069   1.092
   83SL       O 1233   2.959   2.073   1.234
   83SL       C 1234   3.111   2.197   1.057
   83SL       C 1235   3.029   2.313   1.000
   83SL       C 1236   2.919   2.250   0.915
   83SL       C 1237   2.857   2.142   1.001
   83SL       H 1238   3.165   2.224   1.148
   83SL       H 1239   3.181   2.159   0.982
   83SL       H 1240   3.092   2.381   0.942
   83SL       H 1241   2.984   2.370   1.082
   83SL       H 1242   2.964   2.205   0.825
   83SL       H 1243   2.845   2.323   0.882
   83SL       H 1244   2.807   2.064   0.942
   83SL       H 1245   2.786   2.184   1.073
   84SL       O 1246   1.516   3.400   0.749
   84SL       S 1247   1.602   3.377   0.636
   84SL       O 1248   1.555   3.389   0.499
   84SL       C 1249   1.749   3.476   0.656
   84SL       C 1250   1.865   3.378   0.643
   84SL       C 1251   1.820   3.249   0.711
   84SL       C 1252   1.682   3.218   0.655
   84SL       H 1253   1.752   3.555   0.580
   84SL       H 1254   1.747   3.520   0.755
   84SL       H 1255   1.957   3.417   0.688
   84SL       H 1256   1.886   3.358   0.537
   84SL       H 1257   1.814   3.265   0.820
   84SL       H 1258   1.889   3.166   0.694
   84SL       H 1259   1.622   3.155   0.721
   84SL       H 1260   1.690   3.173   0.556
   85SL       O 1261   0.936   0.947   2.344
   85SL       S 1262   1.041   0.930   2.246
   85SL       O 1263   1.012   0.917   2.104
   85SL       C 1264   1.161   1.060   2.268
   85SL       C 1265   1.295   0.989   2.282
   85SL       C 1266   1.267   0.861   2.362
   85SL       C 1267   1.147   0.796   2.295
   85SL       H 1268   1.158   1.129   2.183
   85SL       H 1269   1.136   1.114   2.360
   85SL       H 1270   1.369   1.052   2.332
   85SL       H 1271   1.334   0.962   2.183
   85SL       H 1272   1.243   0.888   2.466
   85SL       H 1273   1.353   0.795   2.364
   85SL       H 1274   1.093   0.729   2.362
   85SL       H 1275   1.177   0.742   2.205
   86SL       O 1276   2.787   3.005   1.401
   86SL       S 1277   2.724   2.886   1.349
   86SL       O 1278   2.800   2.784   1.279
   86SL       C 1279   2.632   2.809   1.481
   86SL       C 1280   2.491   2.791   1.425
   86SL       C 1281   2.463   2.916   1.340
   86SL       C 1282   2.584   2.932   1.250
   86SL       H 1283   2.678   2.714   1.508
   86SL       H 1284   2.631   2.876   1.567
   86SL       H 1285   2.417   2.780   1.505
   86SL       H 1286   2.486   2.702   1.362
   86SL       H 1287   2.453   3.003   1.406
   86SL       H 1288   2.371   2.906   1.283
   86SL       H 1289   2.596   3.035   1.214
   86SL       H 1290   2.579   2.864   1.165
   87SL       O 1291   1.628   1.658   1.790
   87SL       S 1292   1.535   1.641   1.681
   87SL       O 1293   1.554   1.541   1.578
   87SL       C 1294   1.370   1.624   1.748
   87SL       C 1295   1.287   1.730   1.677
   87SL       C 1296   1.378   1.852   1.660
   87SL       C 1297   1.508   1.799   1.603
   87SL       H 1298   1.333   1.523   1.731
   87SL       H 1299   1.375   1.645   1.855
   87SL       H 1300   1.197   1.755   1.733
   87SL       H 1301   1.256   1.694   1.578
   87SL       H 1302   1.396   1.897   1.759
   87SL       H 1303   1.334   1.928   1.596
   87SL       H 1304   1.593   1.865   1.622
   87SL       H 1305   1.499   1.782   1.495
   88SL       O 1306   1.482   1.149   2.752
   88SL       S 1307   1.514   1.242   2.646
   88SL       O 1308   1.518   1.201   2.507
   88SL       C 1309   1.407   1.384   2.661
   88SL       C 1310   1.502   1.504   2.664
   88SL       C 1311   1.624   1.460   2.744
   88SL       C 1312   1.666   1.326   2.686
   88SL       H 1313   1.337   1.388   2.577
   88SL       H 1314   1.352   1.376   2.755
   88SL       H 1315   1.454   1.592   2.709
   88SL       H 1316   1.532   1.531   2.562
   88SL       H 1317   1.596   1.448   2.850
   88SL       H 1318   1.705   1.533   2.739
   88SL       H 1319   1.724   1.266   2.756
   88SL       H 1320   1.722   1.340   2.593
   89SL       O 1321   3.568   3.401   0.354
   89SL       S 1322   3.509   3.350   0.232
   89SL       O 1323   3.546   3.402   0.102
   89SL       C 1324   3.527   3.173   0.230
   89SL       C 1325   3.385   3.120   0.207
   89SL       C 1326   3.292   3.212   0.284
   89SL       C 1327   3.332   3.353   0.247
   89SL       H 1328   3.596   3.142   0.152
   89SL       H 1329   3.564   3.141   0.328
   89SL       H 1330   3.376   3.016   0.240
   89SL       H 1331   3.361   3.124   0.100
   89SL       H 1332   3.306   3.196   0.393
   89SL       H 1333   3.187   3.192   0.262
   89SL       H 1334   3.302   3.427   0.321
   89SL       H 1335   3.291   3.381   0.149
   90SL       O 1336   0.858   1.805   3.571
   90SL       S 1337   0.800   1.706   3.484
   90SL       O 1338   0.656   1.690   3.471
   90SL       C 1339   0.871   1.725   3.321
   90SL       C 1340   0.924   1.586   3.285
   90SL       C 1341   0.980   1.527   3.414
   90SL       C 1342   0.873   1.547   3.519
   90SL       H 1343   0.795   1.761   3.251
   90SL       H 1344   0.952   1.797   3.328
   90SL       H 1345   1.000   1.592   3.206
   90SL       H 1346   0.842   1.523   3.247
   90SL       H 1347   1.071   1.581   3.442
   90SL       H 1348   1.006   1.422   3.402
   90SL       H 1349   0.912   1.546   3.621
   90SL       H 1350   0.794   1.471   3.509
   91SL       O 1351   1.818   1.332   1.863
   91SL       S 1352   1.925   1.309   1.769
   91SL       O 1353   1.911   1.222   1.654
   91SL       C 1354   1.986   1.467   1.714
   91SL       C 1355   2.136   1.464   1.740
   91SL       C 1356   2.155   1.388   1.871
   91SL       C 1357   2.072   1.262   1.859
   91SL       H 1358   1.962   1.482   1.608
   91SL       H 1359   1.938   1.545   1.773
   91SL       H 1360   2.179   1.565   1.745
   91SL       H 1361   2.187   1.410   1.659
   91SL       H 1362   2.117   1.450   1.954
   91SL       H 1363   2.260   1.366   1.892
   91SL       H 1364   2.044   1.220   1.956
   91SL       H 1365   2.125   1.186   1.799
   92SL       O 1366   1.027   0.343   2.285
   92SL       S 1367   1.108   0.386   2.397
   92SL       O 1368   1.155   0.523   2.408
   92SL       C 1369   1.025   0.341   2.548
   92SL       C 1370   1.129   0.262   2.628
   92SL       C 1371   1.207   0.180   2.526
   92SL       C 1372   1.246   0.276   2.415
   92SL       H 1373   0.991   0.431   2.601
   92SL       H 1374   0.940   0.278   2.523
   92SL       H 1375   1.082   0.199   2.703
   92SL       H 1376   1.197   0.331   2.679
   92SL       H 1377   1.142   0.100   2.486
   92SL       H 1378   1.294   0.131   2.570
   92SL       H 1379   1.266   0.225   2.320
   92SL       H 1380   1.333   0.335   2.445
   93SL       O 1381   2.414   1.692   1.548
   93SL       S 1382   2.526   1.630   1.614
   93SL       O 1383   2.581   1.504   1.569
   93SL       C 1384   2.657   1.750   1.628
   93SL       C 1385   2.694   1.752   1.776
   93SL       C 1386   2.562   1.736   1.852
   93SL       C 1387   2.491   1.619   1.789
   93SL       H 1388   2.741   1.720   1.564
   93SL       H 1389   2.618   1.847   1.596
   93SL       H 1390   2.745   1.845   1.803
   93SL       H 1391   2.760   1.668   1.800
   93SL       H 1392   2.502   1.828   1.840
   93SL       H 1393   2.578   1.721   1.959
   93SL       H 1394   2.383   1.621   1.805
   93SL       H 1395   2.532   1.524   1.825
   94SL       O 1396   1.808   3.063   2.093
   94SL       S 1397   1.686   2.997   2.132
   94SL       O 1398   1.685   2.892   2.232
   94SL       C 1399   1.566   3.120   2.177
   94SL       C 1400   1.443   3.088   2.093
   94SL       C 1401   1.495   3.041   1.957
   94SL       C 1402   1.602   2.938   1.987
   94SL       H 1403   1.545   3.116   2.284
   94SL       H 1404   1.606   3.218   2.150
   94SL       H 1405   1.377   3.175   2.083
   94SL       H 1406   1.385   3.007   2.140
   94SL       H 1407   1.539   3.127   1.904
   94SL       H 1408   1.416   3.000   1.894
   94SL       H 1409   1.673   2.926   1.905
   94SL       H 1410   1.557   2.841   2.011
   95SL       O 1411   0.364   3.078   0.362
   95SL       S 1412   0.238   3.012   0.384
   95SL       O 1413   0.115   3.059   0.325
   95SL       C 1414   0.258   2.839   0.345
   95SL       C 1415   0.209   2.764   0.469
   95SL       C 1416   0.255   2.847   0.589
   95SL       C 1417   0.213   2.989   0.559
   95SL       H 1418   0.200   2.814   0.255
   95SL       H 1419   0.364   2.820   0.327
   95SL       H 1420   0.250   2.662   0.472
   95SL       H 1421   0.100   2.757   0.468
   95SL       H 1422   0.365   2.841   0.598
   95SL       H 1423   0.212   2.811   0.682
   95SL       H 1424   0.272   3.063   0.614
   95SL       H 1425   0.107   3.004   0.580
   96SL       O 1426   2.335   3.176   0.679
   96SL       S 1427   2.394   3.272   0.768
   96SL       O 1428   2.431   3.238   0.904
   96SL       C 1429   2.535   3.346   0.687
   96SL       C 1430   2.511   3.496   0.695
   96SL       C 1431   2.361   3.516   0.676
   96SL       C 1432   2.293   3.419   0.771
   96SL       H 1433   2.627   3.315   0.736
   96SL       H 1434   2.536   3.312   0.583
   96SL       H 1435   2.569   3.550   0.619
   96SL       H 1436   2.541   3.534   0.793
   96SL       H 1437   2.333   3.493   0.572
   96SL       H 1438   2.330   3.619   0.696
   96SL       H 1439   2.191   3.394   0.741
   96SL       H 1440   2.294   3.458   0.873
   97SL       O 1441   2.225   1.981   0.759
   97SL       S 1442   2.263   1.879   0.664
   97SL       O 1443   2.339   1.909   0.545
   97SL       C 1444   2.344   1.747   0.754
   97SL       C 1445   2.269   1.620   0.715
   97SL       C 1446   2.122   1.660   0.704
   97SL       C 1447   2.118   1.785   0.618
   97SL       H 1448   2.450   1.743   0.726
   97SL       H 1449   2.334   1.767   0.861
   97SL       H 1450   2.284   1.541   0.789
   97SL       H 1451   2.304   1.584   0.618
   97SL       H 1452   2.083   1.682   0.805
   97SL       H 1453   2.061   1.580   0.661
   97SL       H 1454   2.029   1.845   0.635
   97SL       H 1455   2.127   1.760   0.512
   98SL       O 1456   0.759   1.359   3.120
   98SL       S 1457   0.746   1.380   2.978
   98SL       O 1458   0.840   1.324   2.883
   98SL       C 1459   0.581   1.335   2.929
   98SL       C 1460   0.527   1.457   2.855
   98SL       C 1461   0.582   1.579   2.929
   98SL       C 1462   0.730   1.555   2.946
   98SL       H 1463   0.583   1.245   2.866
   98SL       H 1464   0.523   1.316   3.019
   98SL       H 1465   0.418   1.457   2.852
   98SL       H 1466   0.564   1.457   2.751
   98SL       H 1467   0.533   1.587   3.027
   98SL       H 1468   0.562   1.672   2.875
   98SL       H 1469   0.773   1.611   3.029
   98SL       H 1470   0.784   1.577   2.854
   99SL       O 1471   1.392   1.004   0.651
   99SL       S 1472   1.442   1.082   0.762
   99SL       O 1473   1.428   1.039   0.899
   99SL       C 1474   1.614   1.119   0.730
   99SL       C 1475   1.624   1.271   0.743
   99SL       C 1476   1.495   1.328   0.684
   99SL       C 1477   1.382   1.249   0.747
   99SL       H 1478   1.678   1.067   0.801
   99SL       H 1479   1.638   1.088   0.628
   99SL       H 1480   1.713   1.310   0.691
   99SL       H 1481   1.632   1.300   0.849
   99SL       H 1482   1.495   1.312   0.575
   99SL       H 1483   1.485   1.435   0.702
   99SL       H 1484   1.291   1.250   0.688
   99SL       H 1485   1.361   1.286   0.848
  100SL       O 1486   1.296   3.045   2.337
  100SL       S 1487   1.293   2.922   2.413
  100SL       O 1488   1.244   2.917   2.549
  100SL       C 1489   1.208   2.798   2.316
  100SL       C 1490   1.304   2.680   2.310
  100SL       C 1491   1.444   2.739   2.298
  100SL       C 1492   1.454   2.845   2.406
  100SL       H 1493   1.113   2.772   2.364
  100SL       H 1494   1.190   2.839   2.217
  100SL       H 1495   1.281   2.614   2.226
  100SL       H 1496   1.297   2.620   2.402
  100SL       H 1497   1.456   2.785   2.199
  100SL       H 1498   1.522   2.663   2.309
  100SL       H 1499   1.530   2.921   2.385
  100SL       H 1500   1.473   2.800   2.504
  101SL       O 1501   3.561   2.891   1.585
  101SL       S 1502   3.531   3.010   1.661
  101SL       O 1503   3.602   3.043   1.784
  101SL       C 1504   3.535   3.150   1.552
  101SL       C 1505   3.401   3.220   1.571
  101SL       C 1506   3.298   3.108   1.589
  101SL       C 1507   3.355   3.015   1.694
  101SL       H 1508   3.620   3.215   1.577
  101SL       H 1509   3.546   3.113   1.449
  101SL       H 1510   3.376   3.283   1.485
  101SL       H 1511   3.403   3.283   1.660
  101SL       H 1512   3.284   3.055   1.494
  101SL       H 1513   3.200   3.147   1.619
  101SL       H 1514   3.314   2.914   1.688
  101SL       H 1515   3.341   3.055   1.794
  102SL       O 1516   0.797   2.907   0.279
  102SL       S 1517   0.722   3.022   0.324
  102SL       O 1518   0.587   3.010   0.374
  102SL       C 1519   0.821   3.111   0.443
  102SL       C 1520   0.825   3.254   0.391
  102SL       C 1521   0.834   3.244   0.239
  102SL       C 1522   0.725   3.147   0.197
  102SL       H 1523   0.776   3.103   0.542
  102SL       H 1524   0.921   3.067   0.444
  102SL       H 1525   0.910   3.309   0.433
  102SL       H 1526   0.733   3.307   0.419
  102SL       H 1527   0.933   3.205   0.210
  102SL       H 1528   0.822   3.341   0.190
  102SL       H 1529   0.745   3.100   0.100
  102SL       H 1530   0.627   3.196   0.196
  103SL       O 1531   2.577   2.342   3.469
  103SL       S 1532   2.536   2.209   3.433
  103SL       O 1533   2.536   2.100   3.528
  103SL       C 1534   2.377   2.217   3.354
  103SL       C 1535   2.394   2.145   3.221
  103SL       C 1536   2.534   2.181   3.171
  103SL       C 1537   2.627   2.157   3.288
  103SL       H 1538   2.301   2.171   3.418
  103SL       H 1539   2.352   2.323   3.338
  103SL       H 1540   2.317   2.174   3.149
  103SL       H 1541   2.387   2.037   3.236
  103SL       H 1542   2.536   2.287   3.141
  103SL       H 1543   2.563   2.122   3.084
  103SL       H 1544   2.720   2.215   3.280
  103SL       H 1545   2.650   2.051   3.299
  104SL       O 1546   0.980   2.678   2.870
  104SL       S 1547   1.094   2.589   2.870
  104SL       O 1548   1.128   2.509   2.986
  104SL       C 1549   1.086   2.485   2.727
  104SL       C 1550   1.220   2.502   2.657
  104SL       C 1551   1.258   2.649   2.673
  104SL       C 1552   1.239   2.681   2.820
  104SL       H 1553   1.067   2.381   2.757
  104SL       H 1554   1.004   2.520   2.663
  104SL       H 1555   1.214   2.473   2.551
  104SL       H 1556   1.296   2.439   2.705
  104SL       H 1557   1.190   2.711   2.612
  104SL       H 1558   1.360   2.669   2.641
  104SL       H 1559   1.223   2.788   2.839
  104SL       H 1560   1.323   2.645   2.879
  105SL       O 1561   0.845   0.335   1.389
  105SL       S 1562   0.789   0.310   1.259
  105SL       O 1563   0.864   0.244   1.154
  105SL       C 1564   0.633   0.227   1.280
  105SL       C 1565   0.532   0.311   1.201
  105SL       C 1566   0.573   0.456   1.222
  105SL       C 1567   0.722   0.462   1.194
  105SL       H 1568   0.640   0.124   1.243
  105SL       H 1569   0.608   0.226   1.386
  105SL       H 1570   0.430   0.292   1.235
  105SL       H 1571   0.537   0.286   1.094
  105SL       H 1572   0.553   0.485   1.326
  105SL       H 1573   0.517   0.524   1.157
  105SL       H 1574   0.771   0.548   1.242
  105SL       H 1575   0.741   0.464   1.086
  106SL       O 1576   1.208   2.585   1.498
  106SL       S 1577   1.140   2.653   1.606
  106SL       O 1578   1.063   2.581   1.705
  106SL       C 1579   1.257   2.760   1.688
  106SL       C 1580   1.191   2.898   1.688
  106SL       C 1581   1.119   2.910   1.553
  106SL       C 1582   1.039   2.783   1.537
  106SL       H 1583   1.276   2.723   1.789
  106SL       H 1584   1.349   2.761   1.630
  106SL       H 1585   1.265   2.977   1.701
  106SL       H 1586   1.118   2.905   1.769
  106SL       H 1587   1.194   2.918   1.473
  106SL       H 1588   1.056   2.999   1.549
  106SL       H 1589   1.015   2.760   1.433
  106SL       H 1590   0.946   2.787   1.596
  107SL       O 1591   2.966   0.757   1.535
  107SL       S 1592   2.896   0.639   1.578
  107SL       O 1593   2.780   0.588   1.508
  107SL       C 1594   3.014   0.507   1.599
  107SL       C 1595   2.992   0.456   1.741
  107SL       C 1596   2.961   0.579   1.826
  107SL       C 1597   2.855   0.656   1.751
  107SL       H 1598   2.997   0.429   1.523
  107SL       H 1599   3.114   0.548   1.587
  107SL       H 1600   3.079   0.401   1.778
  107SL       H 1601   2.906   0.387   1.743
  107SL       H 1602   3.053   0.640   1.836
  107SL       H 1603   2.929   0.552   1.927
  107SL       H 1604   2.853   0.762   1.778
  107SL       H 1605   2.756   0.612   1.767
  108SL       O 1606   2.275   3.498   1.089
  108SL       S 1607   2.165   3.405   1.090
  108SL       O 1608   2.155   3.296   0.995
  108SL       C 1609   2.147   3.340   1.255
  108SL       C 1610   2.001   3.365   1.292
  108SL       C 1611   1.965   3.501   1.232
  108SL       C 1612   2.011   3.497   1.088
  108SL       H 1613   2.173   3.234   1.256
  108SL       H 1614   2.214   3.396   1.321
  108SL       H 1615   1.987   3.364   1.401
  108SL       H 1616   1.938   3.287   1.249
  108SL       H 1617   2.018   3.581   1.287
  108SL       H 1618   1.858   3.522   1.239
  108SL       H 1619   2.028   3.596   1.046
  108SL       H 1620   1.940   3.441   1.026
  109SL       O 1621   0.100   0.370   2.881
  109SL       S 1622   0.208   0.456   2.841
  109SL       O 1623   0.241   0.478   2.701
  109SL       C 1624   0.187   0.614   2.921
  109SL       C 1625   0.320   0.641   2.992
  109SL       C 1626   0.368   0.505   3.044
  109SL       C 1627   0.356   0.409   2.928
  109SL       H 1628   0.163   0.691   2.847
  109SL       H 1629   0.106   0.605   2.994
  109SL       H 1630   0.308   0.713   3.073
  109SL       H 1631   0.393   0.680   2.921
  109SL       H 1632   0.302   0.473   3.127
  109SL       H 1633   0.469   0.510   3.083
  109SL       H 1634   0.349   0.305   2.960
  109SL       H 1635   0.441   0.421   2.859
  110SL       O 1636   3.607   2.856   0.819
  110SL       S 1637   3.546   2.860   0.688
  110SL       O 1638   3.591   2.774   0.580
  110SL       C 1639   3.370   2.841   0.708
  110SL       C 1640   3.309   2.960   0.634
  110SL       C 1641   3.403   3.078   0.660
  110SL       C 1642   3.542   3.029   0.630
  110SL       H 1643   3.338   2.745   0.667
  110SL       H 1644   3.347   2.846   0.814
  110SL       H 1645   3.207   2.981   0.668
  110SL       H 1646   3.305   2.939   0.526
  110SL       H 1647   3.394   3.109   0.766
  110SL       H 1648   3.377   3.165   0.599
  110SL       H 1649   3.620   3.087   0.681
  110SL       H 1650   3.562   3.027   0.523
  111SL       O 1651   2.486   2.891   0.703
  111SL       S 1652   2.460   2.827   0.830
  111SL       O 1653   2.568   2.786   0.919
  111SL       C 1654   2.344   2.926   0.921
  111SL       C 1655   2.231   2.830   0.959
  111SL       C 1656   2.213   2.737   0.839
  111SL       C 1657   2.352   2.687   0.804
  111SL       H 1658   2.392   2.970   1.009
  111SL       H 1659   2.307   3.005   0.855
  111SL       H 1660   2.138   2.884   0.982
  111SL       H 1661   2.259   2.772   1.047
  111SL       H 1662   2.170   2.793   0.755
  111SL       H 1663   2.146   2.654   0.862
  111SL       H 1664   2.360   2.654   0.700
  111SL       H 1665   2.384   2.607   0.872
  112SL       O 1666   2.284   1.922   2.460
  112SL       S 1667   2.337   2.056   2.463
  112SL       O 1668   2.415   2.105   2.576
  112SL       C 1669   2.429   2.084   2.313
  112SL       C 1670   2.370   2.212   2.254
  112SL       C 1671   2.220   2.206   2.282
  112SL       C 1672   2.206   2.171   2.429
  112SL       H 1673   2.536   2.094   2.335
  112SL       H 1674   2.412   1.999   2.246
  112SL       H 1675   2.391   2.220   2.147
  112SL       H 1676   2.413   2.300   2.303
  112SL       H 1677   2.174   2.127   2.220
  112SL       H 1678   2.170   2.300   2.258
  112SL       H 1679   2.110   2.126   2.453
  112SL       H 1680   2.222   2.260   2.491
  113SL       O 1681   1.905   0.772   2.773
  113SL       S 1682   2.008   0.760   2.874
  113SL       O 1683   1.994   0.820   3.005
  113SL       C 1684   2.047   0.587   2.894
  113SL       C 1685   2.199   0.579   2.876
  113SL       C 1686   2.234   0.679   2.767
  113SL       C 1687   2.165   0.808   2.805
  113SL       H 1688   2.015   0.552   2.992
  113SL       H 1689   1.996   0.531   2.816
  113SL       H 1690   2.231   0.477   2.850
  113SL       H 1691   2.249   0.607   2.970
  113SL       H 1692   2.196   0.642   2.670
  113SL       H 1693   2.342   0.693   2.757
  113SL       H 1694   2.148   0.874   2.719
  113SL       H 1695   2.220   0.862   2.882
  114SL       O 1696   1.795   3.387   2.285
  114SL       S 1697   1.896   3.338   2.193
  114SL       O 1698   1.944   3.202   2.197
  114SL       C 1699   1.843   3.376   2.027
  114SL       C 1700   1.961   3.452   1.965
  114SL       C 1701   2.019   3.539   2.076
  114SL       C 1702   2.036   3.448   2.196
  114SL       H 1703   1.819   3.284   1.973
  114SL       H 1704   1.755   3.440   2.033
  114SL       H 1705   1.929   3.511   1.879
  114SL       H 1706   2.037   3.381   1.930
  114SL       H 1707   1.947   3.620   2.099
  114SL       H 1708   2.113   3.586   2.046
  114SL       H 1709   2.038   3.503   2.290
  114SL       H 1710   2.126   3.388   2.186
  115SL       O 1711   1.109   1.182   0.583
  115SL       S 1712   1.073   1.229   0.714
  115SL       O 1713   1.119   1.164   0.835
  115SL       C 1714   1.112   1.403   0.724
  115SL       C 1715   0.983   1.470   0.769
  115SL       C 1716   0.870   1.395   0.700
  115SL       C 1717   0.896   1.248   0.723
  115SL       H 1718   1.195   1.419   0.794
  115SL       H 1719   1.141   1.437   0.624
  115SL       H 1720   0.983   1.577   0.744
  115SL       H 1721   0.972   1.461   0.878
  115SL       H 1722   0.872   1.418   0.592
  115SL       H 1723   0.772   1.425   0.737
  115SL       H 1724   0.849   1.184   0.649
  115SL       H 1725   0.864   1.218   0.824
  116SL       O 1726   0.565   2.021   3.364
  116SL       S 1727   0.441   1.957   3.399
  116SL       O 1728   0.434   1.817   3.435
  116SL       C 1729   0.362   2.054   3.526
  116SL       C 1730   0.221   2.082   3.473
  116SL       C 1731   0.237   2.104   3.322
  116SL       C 1732   0.321   1.989   3.271
  116SL       H 1733   0.360   1.998   3.620
  116SL       H 1734   0.418   2.147   3.538
  116SL       H 1735   0.176   2.168   3.522
  116SL       H 1736   0.156   1.995   3.491
  116SL       H 1737   0.289   2.200   3.305
  116SL       H 1738   0.140   2.110   3.272
  116SL       H 1739   0.372   2.012   3.177
  116SL       H 1740   0.260   1.899   3.259
  117SL       O 1741   2.091   0.975   3.535
  117SL       S 1742   2.080   0.962   3.391
  117SL       O 1743   1.954   0.982   3.322
  117SL       C 1744   2.204   1.065   3.315
  117SL       C 1745   2.280   0.972   3.221
  117SL       C 1746   2.289   0.837   3.293
  117SL       C 1747   2.149   0.806   3.341
  117SL       H 1748   2.157   1.149   3.263
  117SL       H 1749   2.270   1.103   3.394
  117SL       H 1750   2.380   1.011   3.198
  117SL       H 1751   2.225   0.960   3.127
  117SL       H 1752   2.357   0.846   3.379
  117SL       H 1753   2.328   0.759   3.228
  117SL       H 1754   2.147   0.736   3.425
  117SL       H 1755   2.087   0.767   3.259
  118SL       O 1756   1.925   0.683   0.363
  118SL       S 1757   2.018   0.582   0.318
  118SL       O 1758   1.991   0.500   0.202
  118SL       C 1759   2.178   0.657   0.301
  118SL       C 1760   2.272   0.570   0.384
  118SL       C 1761   2.192   0.527   0.507
  118SL       C 1762   2.060   0.476   0.455
  118SL       H 1763   2.207   0.661   0.196
  118SL       H 1764   2.173   0.758   0.342
  118SL       H 1765   2.363   0.624   0.412
  118SL       H 1766   2.301   0.481   0.327
  118SL       H 1767   2.177   0.614   0.572
  118SL       H 1768   2.245   0.451   0.566
  118SL       H 1769   1.980   0.480   0.531
  118SL       H 1770   2.069   0.374   0.417
  119SL       O 1771   1.685   2.343   0.948
  119SL       S 1772   1.706   2.484   0.924
  119SL       O 1773   1.662   2.549   0.802
  119SL       C 1774   1.642   2.575   1.064
  119SL       C 1775   1.758   2.663   1.110
  119SL       C 1776   1.885   2.579   1.091
  119SL       C 1777   1.878   2.523   0.951
  119SL       H 1778   1.554   2.633   1.035
  119SL       H 1779   1.615   2.503   1.142
  119SL       H 1780   1.746   2.695   1.214
  119SL       H 1781   1.764   2.753   1.047
  119SL       H 1782   1.886   2.498   1.165
  119SL       H 1783   1.975   2.639   1.106
  119SL       H 1784   1.938   2.432   0.939
  119SL       H 1785   1.907   2.597   0.877
  120SL       O 1786   1.310   1.351   2.203
  120SL       S 1787   1.364   1.372   2.071
  120SL       O 1788   1.281   1.417   1.961
  120SL       C 1789   1.507   1.477   2.084
  120SL       C 1790   1.619   1.401   2.013
  120SL       C 1791   1.597   1.253   2.047
  120SL       C 1792   1.451   1.225   2.020
  120SL       H 1793   1.486   1.574   2.038
  120SL       H 1794   1.530   1.490   2.190
  120SL       H 1795   1.717   1.436   2.045
  120SL       H 1796   1.611   1.415   1.905
  120SL       H 1797   1.620   1.237   2.154
  120SL       H 1798   1.663   1.188   1.989
  120SL       H 1799   1.414   1.138   2.076
  120SL       H 1800   1.433   1.211   1.913
  121SL       O 1801   0.980   1.361   3.192
  121SL       S 1802   1.091   1.273   3.220
  121SL       O 1803   1.143   1.254   3.354
  121SL       C 1804   1.054   1.113   3.149
  121SL       C 1805   1.175   1.080   3.061
  121SL       C 1806   1.218   1.213   2.998
  121SL       C 1807   1.226   1.312   3.111
  121SL       H 1808   1.039   1.039   3.228
  121SL       H 1809   0.964   1.123   3.088
  121SL       H 1810   1.149   1.006   2.985
  121SL       H 1811   1.256   1.040   3.122
  121SL       H 1812   1.142   1.244   2.924
  121SL       H 1813   1.313   1.203   2.945
  121SL       H 1814   1.217   1.416   3.077
  121SL       H 1815   1.319   1.300   3.168
  122SL       O 1816   0.967   1.438   0.212
  122SL       S 1817   0.882   1.519   0.295
  122SL       O 1818   0.921   1.559   0.429
  122SL       C 1819   0.834   1.664   0.203
  122SL       C 1820   0.682   1.667   0.210
  122SL       C 1821   0.636   1.522   0.202
  122SL       C 1822   0.720   1.446   0.302
  122SL       H 1823   0.880   1.753   0.247
  122SL       H 1824   0.868   1.652   0.100
  122SL       H 1825   0.639   1.728   0.130
  122SL       H 1826   0.649   1.711   0.306
  122SL       H 1827   0.655   1.484   0.100
  122SL       H 1828   0.529   1.511   0.222
  122SL       H 1829   0.727   1.339   0.280
  122SL       H 1830   0.681   1.460   0.404
  123SL       O 1831   2.692   2.086   0.431
  123SL       S 1832   2.564   2.142   0.468
  123SL       O 1833   2.477   2.078   0.565
  123SL       C 1834   2.588   2.312   0.514
  123SL       C 1835   2.490   2.391   0.428
  123SL       C 1836   2.489   2.322   0.292
  123SL       C 1837   2.470   2.175   0.320
  123SL       H 1838   2.570   2.325   0.621
  123SL       H 1839   2.692   2.340   0.491
  123SL       H 1840   2.520   2.496   0.420
  123SL       H 1841   2.390   2.388   0.472
  123SL       H 1842   2.585   2.340   0.241
  123SL       H 1843   2.410   2.361   0.227
  123SL       H 1844   2.506   2.111   0.239
  123SL       H 1845   2.365   2.152   0.341
  124SL       O 1846   2.366   1.557   0.398
  124SL       S 1847   2.508   1.583   0.408
  124SL       O 1848   2.583   1.557   0.529
  124SL       C 1849   2.589   1.504   0.270
  124SL       C 1850   2.671   1.615   0.204
  124SL       C 1851   2.586   1.741   0.212
  124SL       C 1852   2.539   1.751   0.356
  124SL       H 1853   2.652   1.422   0.306
  124SL       H 1854   2.513   1.466   0.202
  124SL       H 1855   2.695   1.590   0.100
  124SL       H 1856   2.765   1.630   0.258
  124SL       H 1857   2.499   1.731   0.145
  124SL       H 1858   2.641   1.830   0.182
  124SL       H 1859   2.449   1.811   0.368
  124SL       H 1860   2.619   1.791   0.420
  125SL       O 1861   2.618   0.699   0.519
  125SL       S 1862   2.619   0.660   0.658
  125SL       O 1863   2.697   0.731   0.757
  125SL       C 1864   2.451   0.648   0.714
  125SL       C 1865   2.439   0.509   0.775
  125SL       C 1866   2.523   0.417   0.686
  125SL       C 1867   2.656   0.486   0.669
  125SL       H 1868   2.430   0.727   0.787
  125SL       H 1869   2.385   0.659   0.628
  125SL       H 1870   2.334   0.476   0.779
  125SL       H 1871   2.479   0.508   0.877
  125SL       H 1872   2.473   0.405   0.588
  125SL       H 1873   2.534   0.317   0.729
  125SL       H 1874   2.710   0.454   0.580
  125SL       H 1875   2.720   0.471   0.758
  126SL       O 1876   2.855   1.495   3.135
  126SL       S 1877   2.828   1.354   3.128
  126SL       O 1878   2.923   1.260   3.072
  126SL       C 1879   2.780   1.297   3.291
  126SL       C 1880   2.647   1.226   3.270
  126SL       C 1881   2.571   1.307   3.165
  126SL       C 1882   2.669   1.328   3.051
  126SL       H 1883   2.857   1.231   3.331
  126SL       H 1884   2.769   1.385   3.355
  126SL       H 1885   2.590   1.220   3.364
  126SL       H 1886   2.663   1.124   3.234
  126SL       H 1887   2.541   1.404   3.208
  126SL       H 1888   2.481   1.256   3.131
  126SL       H 1889   2.644   1.415   2.989
  126SL       H 1890   2.676   1.239   2.988
  127SL       O 1891   1.506   1.462   3.619
  127SL       S 1892   1.513   1.532   3.492
  127SL       O 1893   1.596   1.485   3.383
  127SL       C 1894   1.347   1.557   3.432
  127SL       C 1895   1.337   1.706   3.405
  127SL       C 1896   1.416   1.775   3.516
  127SL       C 1897   1.549   1.704   3.523
  127SL       H 1898   1.330   1.496   3.342
  127SL       H 1899   1.277   1.526   3.511
  127SL       H 1900   1.232   1.740   3.403
  127SL       H 1901   1.381   1.730   3.308
  127SL       H 1902   1.362   1.764   3.612
  127SL       H 1903   1.428   1.882   3.498
  127SL       H 1904   1.598   1.715   3.620
  127SL       H 1905   1.616   1.739   3.443
  128SL       O 1906   3.112   2.054   2.506
  128SL       S 1907   3.040   2.117   2.614
  128SL       O 1908   3.073   2.092   2.753
  128SL       C 1909   3.036   2.293   2.586
  128SL       C 1910   2.889   2.331   2.593
  128SL       C 1911   2.812   2.216   2.528
  128SL       C 1912   2.865   2.090   2.591
  128SL       H 1913   3.097   2.344   2.661
  128SL       H 1914   3.077   2.312   2.486
  128SL       H 1915   2.870   2.426   2.542
  128SL       H 1916   2.858   2.342   2.698
  128SL       H 1917   2.832   2.216   2.419
  128SL       H 1918   2.704   2.226   2.541
  128SL       H 1919   2.850   2.001   2.529
  128SL       H 1920   2.821   2.073   2.690
  129SL       O 1921   0.159   1.251   2.572
  129SL       S 1922   0.259   1.255   2.468
  129SL       O 1923   0.225   1.229   2.329
  129SL       C 1924   0.346   1.410   2.478
  129SL       C 1925   0.494   1.371   2.485
  129SL       C 1926   0.501   1.245   2.570
  129SL       C 1927   0.396   1.151   2.514
  129SL       H 1928   0.323   1.472   2.391
  129SL       H 1929   0.315   1.461   2.570
  129SL       H 1930   0.554   1.452   2.528
  129SL       H 1931   0.532   1.350   2.384
  129SL       H 1932   0.477   1.270   2.675
  129SL       H 1933   0.600   1.200   2.569
  129SL       H 1934   0.363   1.076   2.587
  129SL       H 1935   0.432   1.101   2.424
  130SL       O 1936   2.610   2.753   2.614
  130SL       S 1937   2.544   2.657   2.528
  130SL       O 1938   2.554   2.665   2.384
  130SL       C 1939   2.591   2.493   2.581
  130SL       C 1940   2.458   2.420   2.602
  130SL       C 1941   2.362   2.522   2.662
  130SL       C 1942   2.373   2.645   2.574
  130SL       H 1943   2.653   2.445   2.504
  130SL       H 1944   2.646   2.501   2.674
  130SL       H 1945   2.471   2.333   2.668
  130SL       H 1946   2.419   2.384   2.506
  130SL       H 1947   2.394   2.546   2.765
  130SL       H 1948   2.260   2.485   2.667
  130SL       H 1949   2.342   2.737   2.626
  130SL       H 1950   2.314   2.633   2.483
  131SL       O 1951   0.100   2.373   2.752
  131SL       S 1952   0.172   2.366   2.877
  131SL       O 1953   0.146   2.459   2.986
  131SL       C 1954   0.161   2.199   2.940
  131SL       C 1955   0.305   2.157   2.965
  131SL       C 1956   0.388   2.218   2.852
  131SL       C 1957   0.347   2.363   2.845
  131SL       H 1958   0.100   2.197   3.031
  131SL       H 1959   0.115   2.137   2.863
  131SL       H 1960   0.315   2.048   2.968
  131SL       H 1961   0.340   2.196   3.062
  131SL       H 1962   0.364   2.167   2.758
  131SL       H 1963   0.495   2.207   2.869
  131SL       H 1964   0.367   2.408   2.747
  131SL       H 1965   0.397   2.422   2.923
  132SL       O 1966   2.996   1.610   1.939
  132SL       S 1967   3.128   1.586   1.886
  132SL       O 1968   3.149   1.516   1.761
  132SL       C 1969   3.218   1.740   1.883
  132SL       C 1970   3.347   1.712   1.958
  132SL       C 1971   3.310   1.618   2.073
  132SL       C 1972   3.228   1.507   2.012
  132SL       H 1973   3.235   1.771   1.779
  132SL       H 1974   3.158   1.815   1.935
  132SL       H 1975   3.393   1.805   1.995
  132SL       H 1976   3.420   1.662   1.892
  132SL       H 1977   3.250   1.674   2.147
  132SL       H 1978   3.398   1.580   2.125
  132SL       H 1979   3.163   1.457   2.084
  132SL       H 1980   3.292   1.434   1.963
  133SL       O 1981   0.213   1.360   0.916
  133SL       S 1982   0.294   1.398   1.029
  133SL       O 1983   0.294   1.321   1.152
  133SL       C 1984   0.462   1.422   0.975
  133SL       C 1985   0.499   1.562   1.022
  133SL       C 1986   0.374   1.647   1.006
  133SL       C 1987   0.261   1.569   1.069
  133SL       H 1988   0.526   1.344   1.017
  133SL       H 1989   0.463   1.416   0.865
  133SL       H 1990   0.584   1.602   0.965
  133SL       H 1991   0.529   1.559   1.128
  133SL       H 1992   0.354   1.663   0.898
  133SL       H 1993   0.385   1.746   1.052
  133SL       H 1994   0.163   1.597   1.031
  133SL       H 1995   0.263   1.579   1.178
  134SL       O 1996   0.259   2.085   0.190
  134SL       S 1997   0.228   2.226   0.191
  134SL       O 1998   0.121   2.281   0.110
  134SL       C 1999   0.205   2.277   0.360
  134SL       C 2000   0.299   2.396   0.379
  134SL       C 2001   0.425   2.363   0.299
  134SL       C 2002   0.377   2.319   0.162
  134SL       H 2003   0.100   2.303   0.378
  134SL       H 2004   0.234   2.194   0.425
  134SL       H 2005   0.321   2.413   0.485
  134SL       H 2006   0.252   2.487   0.339
  134SL       H 2007   0.479   2.281   0.348
  134SL       H 2008   0.492   2.448   0.292
  134SL       H 2009   0.450   2.257   0.109
  134SL       H 2010   0.351   2.405   0.100
  135SL       O 2011   3.555   2.071   3.129
  135SL       S 2012   3.543   1.927   3.132
  135SL       O 2013   3.620   1.845   3.224
  135SL       C 2014   3.370   1.885   3.149
  135SL       C 2015   3.342   1.789   3.033
  135SL       C 2016   3.423   1.840   2.914
  135SL       C 2017   3.563   1.863   2.967
  135SL       H 2018   3.352   1.840   3.246
  135SL       H 2019   3.312   1.977   3.138
  135SL       H 2020   3.235   1.785   3.010
  135SL       H 2021   3.374   1.688   3.060
  135SL       H 2022   3.380   1.935   2.879
  135SL       H 2023   3.422   1.770   2.831
  135SL       H 2024   3.620   1.935   2.907
  135SL       H 2025   3.619   1.769   2.974
  136SL       O 2026   3.020   1.993   0.812
  136SL       S 2027   3.004   1.864   0.750
  136SL       O 2028   3.011   1.845   0.607
  136SL       C 2029   3.115   1.749   0.830
  136SL       C 2030   3.027   1.633   0.874
  136SL       C 2031   2.895   1.695   0.920
  136SL       C 2032   2.853   1.790   0.810
  136SL       H 2033   3.193   1.718   0.760
  136SL       H 2034   3.160   1.799   0.916
  136SL       H 2035   3.074   1.575   0.954
  136SL       H 2036   3.008   1.565   0.790
  136SL       H 2037   2.911   1.750   1.014
  136SL       H 2038   2.818   1.619   0.939
  136SL       H 2039   2.785   1.868   0.845
  136SL       H 2040   2.807   1.735   0.727
  137SL       O 2041   0.679   1.592   1.285
  137SL       S 2042   0.615   1.652   1.399
  137SL       O 2043   0.624   1.794   1.426
  137SL       C 2044   0.444   1.604   1.400
  137SL       C 2045   0.420   1.545   1.538
  137SL       C 2046   0.547   1.468   1.574
  137SL       C 2047   0.662   1.563   1.546
  137SL       H 2048   0.380   1.691   1.380
  137SL       H 2049   0.429   1.528   1.322
  137SL       H 2050   0.332   1.479   1.539
  137SL       H 2051   0.403   1.625   1.611
  137SL       H 2052   0.555   1.379   1.510
  137SL       H 2053   0.547   1.435   1.678
  137SL       H 2054   0.757   1.511   1.529
  137SL       H 2055   0.673   1.635   1.627
  138SL       O 2056   3.592   0.351   2.476
  138SL       S 2057   3.531   0.230   2.526
  138SL       O 2058   3.565   0.100   2.472
  138SL       C 2059   3.551   0.227   2.703
  138SL       C 2060   3.411   0.206   2.759
  138SL       C 2061   3.317   0.286   2.668
  138SL       C 2062   3.354   0.249   2.526
  138SL       H 2063   3.620   0.147   2.732
  138SL       H 2064   3.592   0.323   2.735
  138SL       H 2065   3.404   0.238   2.863
  138SL       H 2066   3.384   0.100   2.754
  138SL       H 2067   3.334   0.394   2.685
  138SL       H 2068   3.212   0.266   2.689
  138SL       H 2069   3.325   0.325   2.453
  138SL       H 2070   3.310   0.153   2.498
  139SL       O 2071   2.416   0.789   3.027
  139SL       S 2072   2.534   0.804   2.947
  139SL       O 2073   2.530   0.798   2.802
  139SL       C 2074   2.618   0.953   2.996
  139SL       C 2075   2.761   0.909   3.027
  139SL       C 2076   2.750   0.772   3.093
  139SL       C 2077   2.659   0.690   3.004
  139SL       H 2078   2.614   1.027   2.916
  139SL       H 2079   2.569   0.992   3.086
  139SL       H 2080   2.812   0.981   3.092
  139SL       H 2081   2.819   0.901   2.935
  139SL       H 2082   2.706   0.783   3.194
  139SL       H 2083   2.848   0.724   3.105
  139SL       H 2084   2.611   0.607   3.057
  139SL       H 2085   2.713   0.652   2.917
  140SL       O 2086   2.656   3.195   3.427
  140SL       S 2087   2.722   3.305   3.361
  140SL       O 2088   2.823   3.283   3.260
  140SL       C 2089   2.597   3.415   3.295
  140SL       C 2090   2.633   3.553   3.350
  140SL       C 2091   2.684   3.530   3.493
  140SL       C 2092   2.786   3.418   3.483
  140SL       H 2093   2.598   3.412   3.186
  140SL       H 2094   2.500   3.382   3.333
  140SL       H 2095   2.547   3.620   3.349
  140SL       H 2096   2.713   3.598   3.290
  140SL       H 2097   2.600   3.499   3.557
  140SL       H 2098   2.727   3.620   3.536
  140SL       H 2099   2.800   3.365   3.578
  140SL       H 2100   2.882   3.455   3.447
  141SL       O 2101   2.368   1.463   3.357
  141SL       S 2102   2.344   1.552   3.246
  141SL       O 2103   2.447   1.639   3.193
  141SL       C 2104   2.274   1.458   3.112
  141SL       C 2105   2.145   1.532   3.075
  141SL       C 2106   2.085   1.582   3.206
  141SL       C 2107   2.199   1.650   3.280
  141SL       H 2108   2.344   1.452   3.029
  141SL       H 2109   2.251   1.358   3.149
  141SL       H 2110   2.076   1.466   3.021
  141SL       H 2111   2.168   1.617   3.010
  141SL       H 2112   2.048   1.496   3.265
  141SL       H 2113   2.001   1.649   3.190
  141SL       H 2114   2.182   1.655   3.388
  141SL       H 2115   2.216   1.751   3.241
  142SL       O 2116   0.981   0.539   0.851
  142SL       S 2117   1.064   0.607   0.948
  142SL       O 2118   1.069   0.751   0.957
  142SL       C 2119   1.026   0.540   1.109
  142SL       C 2120   1.161   0.498   1.167
  142SL       C 2121   1.242   0.441   1.049
  142SL       C 2122   1.230   0.544   0.938
  142SL       H 2123   0.977   0.616   1.171
  142SL       H 2124   0.961   0.454   1.096
  142SL       H 2125   1.149   0.424   1.247
  142SL       H 2126   1.213   0.585   1.209
  142SL       H 2127   1.197   0.346   1.018
  142SL       H 2128   1.346   0.423   1.076
  142SL       H 2129   1.247   0.501   0.839
  142SL       H 2130   1.298   0.627   0.955
  143SL       O 2131   1.409   1.005   2.951
  143SL       S 2132   1.403   0.928   2.829
  143SL       O 2133   1.347   0.982   2.707
  143SL       C 2134   1.566   0.864   2.794
  143SL       C 2135   1.547   0.714   2.777
  143SL       C 2136   1.441   0.673   2.880
  143SL       C 2137   1.327   0.771   2.863
  143SL       H 2138   1.607   0.912   2.705
  143SL       H 2139   1.630   0.886   2.880
  143SL       H 2140   1.641   0.660   2.792
  143SL       H 2141   1.511   0.692   2.676
  143SL       H 2142   1.484   0.681   2.981
  143SL       H 2143   1.408   0.570   2.866
  143SL       H 2144   1.265   0.779   2.953
  143SL       H 2145   1.265   0.744   2.777
  144SL       O 2146   2.443   3.620   2.718
  144SL       S 2147   2.430   3.494   2.650
  144SL       O 2148   2.522   3.384   2.673
  144SL       C 2149   2.263   3.435   2.670
  144SL       C 2150   2.213   3.408   2.528
  144SL       C 2151   2.273   3.518   2.441
  144SL       C 2152   2.420   3.523   2.474
  144SL       H 2153   2.262   3.346   2.733
  144SL       H 2154   2.205   3.515   2.717
  144SL       H 2155   2.104   3.408   2.524
  144SL       H 2156   2.249   3.310   2.494
  144SL       H 2157   2.224   3.614   2.466
  144SL       H 2158   2.256   3.499   2.334
  144SL       H 2159   2.466   3.620   2.451
  144SL       H 2160   2.475   3.443   2.424
  145SL       O 2161   0.242   2.622   0.966
  145SL       S 2162   0.244   2.642   1.109
  145SL       O 2163   0.193   2.541   1.201
  145SL       C 2164   0.409   2.687   1.158
  145SL       C 2165   0.392   2.817   1.238
  145SL       C 2166   0.282   2.895   1.168
  145SL       C 2167   0.167   2.798   1.148
  145SL       H 2168   0.454   2.607   1.217
  145SL       H 2169   0.468   2.704   1.068
  145SL       H 2170   0.486   2.873   1.242
  145SL       H 2171   0.362   2.794   1.341
  145SL       H 2172   0.318   2.931   1.070
  145SL       H 2173   0.251   2.983   1.225
  145SL       H 2174   0.100   2.827   1.067
  145SL       H 2175   0.110   2.785   1.240
  146SL       O 2176   2.392   2.593   1.091
  146SL       S 2177   2.337   2.524   1.205
  146SL       O 2178   2.298   2.595   1.326
  146SL       C 2179   2.200   2.424   1.150
  146SL       C 2180   2.231   2.283   1.201
  146SL       C 2181   2.383   2.266   1.188
  146SL       C 2182   2.444   2.389   1.250
  146SL       H 2183   2.106   2.463   1.189
  146SL       H 2184   2.199   2.426   1.040
  146SL       H 2185   2.177   2.207   1.144
  146SL       H 2186   2.202   2.274   1.306
  146SL       H 2187   2.409   2.259   1.081
  146SL       H 2188   2.418   2.174   1.236
  146SL       H 2189   2.546   2.409   1.213
  146SL       H 2190   2.445   2.382   1.359
  147SL       O 2191   0.905   2.674   3.096
  147SL       S 2192   0.882   2.535   3.125
  147SL       O 2193   0.987   2.449   3.176
  147SL       C 2194   0.739   2.521   3.230
  147SL       C 2195   0.647   2.422   3.159
  147SL       C 2196   0.660   2.452   3.009
  147SL       C 2197   0.809   2.457   2.982
  147SL       H 2198   0.769   2.486   3.329
  147SL       H 2199   0.693   2.619   3.238
  147SL       H 2200   0.543   2.433   3.193
  147SL       H 2201   0.678   2.319   3.179
  147SL       H 2202   0.614   2.550   2.987
  147SL       H 2203   0.610   2.377   2.948
  147SL       H 2204   0.834   2.515   2.892
  147SL       H 2205   0.851   2.356   2.973
  148SL       O 2206   0.258   2.598   2.171
  148SL       S 2207   0.379   2.574   2.097
  148SL       O 2208   0.399   2.453   2.021
  148SL       C 2209   0.409   2.715   1.991
  148SL       C 2210   0.552   2.759   2.023
  148SL       C 2211   0.569   2.739   2.173
  148SL       C 2212   0.519   2.599   2.203
  148SL       H 2213   0.397   2.686   1.886
  148SL       H 2214   0.337   2.793   2.017
  148SL       H 2215   0.569   2.863   1.993
  148SL       H 2216   0.624   2.696   1.969
  148SL       H 2217   0.508   2.814   2.227
  148SL       H 2218   0.673   2.753   2.205
  148SL       H 2219   0.489   2.586   2.308
  148SL       H 2220   0.595   2.524   2.177
  149SL       O 2221   0.933   2.382   2.507
  149SL       S 2222   0.931   2.265   2.423
  149SL       O 2223   0.930   2.275   2.278
  149SL       C 2224   1.063   2.157   2.473
  149SL       C 2225   0.996   2.022   2.499
  149SL       C 2226   0.860   2.053   2.562
  149SL       C 2227   0.797   2.159   2.474
  149SL       H 2228   1.139   2.151   2.395
  149SL       H 2229   1.106   2.196   2.565
  149SL       H 2230   1.057   1.958   2.564
  149SL       H 2231   0.981   1.969   2.404
  149SL       H 2232   0.876   2.092   2.664
  149SL       H 2233   0.797   1.964   2.570
  149SL       H 2234   0.721   2.218   2.527
  149SL       H 2235   0.753   2.115   2.384
  150SL       O 2236   1.904   3.333   2.761
  150SL       S 2237   1.821   3.328   2.643
  150SL       O 2238   1.768   3.448   2.582
  150SL       C 2239   1.906   3.232   2.518
  150SL       C 2240   1.806   3.125   2.476
  150SL       C 2241   1.731   3.084   2.603
  150SL       C 2242   1.688   3.213   2.670
  150SL       H 2243   1.936   3.297   2.435
  150SL       H 2244   1.994   3.187   2.564
  150SL       H 2245   1.856   3.040   2.429
  150SL       H 2246   1.734   3.167   2.403
  150SL       H 2247   1.800   3.028   2.669
  150SL       H 2248   1.646   3.019   2.582
  150SL       H 2249   1.670   3.201   2.777
  150SL       H 2250   1.598   3.254   2.622
  151SL       O 2251   2.777   1.443   1.490
  151SL       S 2252   2.757   1.381   1.619
  151SL       O 2253   2.723   1.459   1.737
  151SL       C 2254   2.640   1.249   1.601
  151SL       C 2255   2.709   1.126   1.660
  151SL       C 2256   2.856   1.138   1.622
  151SL       C 2257   2.898   1.279   1.658
  151SL       H 2258   2.546   1.273   1.653
  151SL       H 2259   2.621   1.234   1.494
  151SL       H 2260   2.665   1.033   1.623
  151SL       H 2261   2.699   1.127   1.770
  151SL       H 2262   2.867   1.122   1.513
  151SL       H 2263   2.918   1.063   1.672
  151SL       H 2264   2.985   1.313   1.601
  151SL       H 2265   2.917   1.288   1.765
  152SL       O 2266   1.707   1.750   2.254
  152SL       S 2267   1.810   1.687   2.176
  152SL       O 2268   1.792   1.657   2.035
  152SL       C 2269   1.961   1.780   2.196
  152SL       C 2270   2.065   1.677   2.240
  152SL       C 2271   1.992   1.579   2.333
  152SL       C 2272   1.865   1.540   2.260
  152SL       H 2273   1.988   1.829   2.102
  152SL       H 2274   1.945   1.854   2.274
  152SL       H 2275   2.150   1.724   2.290
  152SL       H 2276   2.104   1.622   2.153
  152SL       H 2277   1.967   1.631   2.427
  152SL       H 2278   2.053   1.492   2.357
  152SL       H 2279   1.787   1.504   2.327
  152SL       H 2280   1.886   1.464   2.184
  153SL       O 2281   3.052   0.563   3.149
  153SL       S 2282   2.952   0.499   3.232
  153SL       O 2283   2.816   0.478   3.185
  153SL       C 2284   3.018   0.345   3.291
  153SL       C 2285   3.001   0.350   3.443
  153SL       C 2286   3.029   0.495   3.483
  153SL       C 2287   2.946   0.581   3.390
  153SL       H 2288   2.964   0.261   3.246
  153SL       H 2289   3.123   0.340   3.264
  153SL       H 2290   3.069   0.281   3.493
  153SL       H 2291   2.898   0.324   3.470
  153SL       H 2292   3.136   0.516   3.470
  153SL       H 2293   3.004   0.514   3.588
  153SL       H 2294   2.985   0.683   3.380
  153SL       H 2295   2.842   0.584   3.422
  154SL       O 2296   3.202   0.976   1.295
  154SL       S 2297   3.327   1.038   1.259
  154SL       O 2298   3.350   1.180   1.275
  154SL       C 2299   3.460   0.949   1.339
  154SL       C 2300   3.556   0.912   1.227
  154SL       C 2301   3.469   0.878   1.106
  154SL       C 2302   3.370   0.991   1.092
  154SL       H 2303   3.506   1.012   1.415
  154SL       H 2304   3.417   0.860   1.385
  154SL       H 2305   3.620   0.828   1.255
  154SL       H 2306   3.620   0.997   1.203
  154SL       H 2307   3.416   0.783   1.125
  154SL       H 2308   3.528   0.865   1.015
  154SL       H 2309   3.279   0.963   1.038
  154SL       H 2310   3.416   1.078   1.044
  155SL       O 2311   0.775   3.406   2.238
  155SL       S 2312   0.830   3.318   2.139
  155SL       O 2313   0.834   3.174   2.157
  155SL       C 2314   0.754   3.354   1.982
  155SL       C 2315   0.870   3.378   1.886
  155SL       C 2316   0.977   3.452   1.967
  155SL       C 2317   0.994   3.374   2.095
  155SL       H 2318   0.691   3.270   1.950
  155SL       H 2319   0.693   3.444   1.993
  155SL       H 2320   0.838   3.436   1.798
  155SL       H 2321   0.911   3.283   1.850
  155SL       H 2322   0.941   3.554   1.989
  155SL       H 2323   1.071   3.461   1.912
  155SL       H 2324   1.035   3.434   2.177
  155SL       H 2325   1.056   3.286   2.079
  156SL       O 2326   1.803   2.661   2.098
  156SL       S 2327   1.751   2.558   2.011
  156SL       O 2328   1.680   2.590   1.888
  156SL       C 2329   1.883   2.444   1.973
  156SL       C 2330   1.827   2.307   2.009
  156SL       C 2331   1.743   2.326   2.135
  156SL       C 2332   1.653   2.444   2.106
  156SL       H 2333   1.910   2.452   1.867
  156SL       H 2334   1.969   2.469   2.035
  156SL       H 2335   1.908   2.234   2.025
  156SL       H 2336   1.764   2.269   1.928
  156SL       H 2337   1.809   2.349   2.220
  156SL       H 2338   1.686   2.237   2.160
  156SL       H 2339   1.617   2.494   2.197
  156SL       H 2340   1.567   2.414   2.045
  157SL       O 2341   2.219   0.673   2.231
  157SL       S 2342   2.091   0.719   2.279
  157SL       O 2343   2.079   0.823   2.380
  157SL       C 2344   1.990   0.763   2.138
  157SL       C 2345   1.861   0.684   2.156
  157SL       C 2346   1.901   0.548   2.214
  157SL       C 2347   1.993   0.578   2.330
  157SL       H 2348   1.974   0.871   2.136
  157SL       H 2349   2.043   0.731   2.048
  157SL       H 2350   1.807   0.673   2.061
  157SL       H 2351   1.794   0.736   2.226
  157SL       H 2352   1.955   0.490   2.137
  157SL       H 2353   1.814   0.490   2.245
  157SL       H 2354   2.059   0.495   2.355
  157SL       H 2355   1.936   0.608   2.419
  158SL       O 2356   0.664   0.407   0.517
  158SL       S 2357   0.624   0.341   0.395
  158SL       O 2358   0.551   0.215   0.397
  158SL       C 2359   0.536   0.458   0.294
  158SL       C 2360   0.607   0.454   0.159
  158SL       C 2361   0.756   0.438   0.190
  158SL       C 2362   0.766   0.324   0.289
  158SL       H 2363   0.430   0.429   0.286
  158SL       H 2364   0.545   0.556   0.340
  158SL       H 2365   0.588   0.545   0.101
  158SL       H 2366   0.572   0.369   0.100
  158SL       H 2367   0.794   0.531   0.235
  158SL       H 2368   0.815   0.419   0.100
  158SL       H 2369   0.857   0.327   0.348
  158SL       H 2370   0.758   0.227   0.238
  159SL       O 2371   3.224   2.640   1.188
  159SL       S 2372   3.280   2.736   1.281
  159SL       O 2373   3.243   2.738   1.421
  159SL       C 2374   3.458   2.729   1.267
  159SL       C 2375   3.501   2.874   1.241
  159SL       C 2376   3.394   2.934   1.150
  159SL       C 2377   3.261   2.900   1.214
  159SL       H 2378   3.501   2.689   1.359
  159SL       H 2379   3.483   2.665   1.183
  159SL       H 2380   3.600   2.878   1.196
  159SL       H 2381   3.504   2.929   1.336
  159SL       H 2382   3.401   2.888   1.050
  159SL       H 2383   3.407   3.042   1.138
  159SL       H 2384   3.178   2.901   1.142
  159SL       H 2385   3.239   2.968   1.297
  160SL       O 2386   0.431   3.311   2.065
  160SL       S 2387   0.432   3.230   2.185
  160SL       O 2388   0.477   3.092   2.185
  160SL       C 2389   0.521   3.319   2.312
  160SL       C 2390   0.426   3.324   2.431
  160SL       C 2391   0.285   3.342   2.373
  160SL       C 2392   0.272   3.239   2.263
  160SL       H 2393   0.615   3.268   2.335
  160SL       H 2394   0.541   3.420   2.275
  160SL       H 2395   0.452   3.405   2.500
  160SL       H 2396   0.430   3.229   2.487
  160SL       H 2397   0.277   3.444   2.331
  160SL       H 2398   0.208   3.331   2.449
  160SL       H 2399   0.196   3.265   2.189
  160SL       H 2400   0.250   3.140   2.305
  161SL       O 2401   0.969   2.023   0.156
  161SL       S 2402   1.111   2.032   0.178
  161SL       O 2403   1.195   2.122   0.100
  161SL       C 2404   1.140   2.063   0.351
  161SL       C 2405   1.237   1.954   0.395
  161SL       C 2406   1.197   1.827   0.319
  161SL       C 2407   1.182   1.869   0.174
  161SL       H 2408   1.180   2.163   0.366
  161SL       H 2409   1.045   2.053   0.404
  161SL       H 2410   1.235   1.938   0.503
  161SL       H 2411   1.340   1.982   0.367
  161SL       H 2412   1.100   1.791   0.358
  161SL       H 2413   1.270   1.747   0.331
  161SL       H 2414   1.117   1.802   0.117
  161SL       H 2415   1.280   1.876   0.125
  162SL       O 2416   2.847   0.487   1.106
  162SL       S 2417   2.958   0.577   1.126
  162SL       O 2418   3.049   0.562   1.238
  162SL       C 2419   3.053   0.585   0.976
  162SL       C 2420   3.063   0.734   0.943
  162SL       C 2421   2.928   0.795   0.982
  162SL       C 2422   2.899   0.745   1.122
  162SL       H 2423   3.151   0.539   0.990
  162SL       H 2424   2.997   0.532   0.898
  162SL       H 2425   3.085   0.750   0.837
  162SL       H 2426   3.143   0.780   1.002
  162SL       H 2427   2.850   0.760   0.912
  162SL       H 2428   2.930   0.904   0.978
  162SL       H 2429   2.792   0.747   1.147
  162SL       H 2430   2.955   0.802   1.197
  163SL       O 2431   2.446   0.841   0.520
  163SL       S 2432   2.450   0.984   0.510
  163SL       O 2433   2.399   1.071   0.614
  163SL       C 2434   2.617   1.033   0.472
  163SL       C 2435   2.606   1.121   0.347
  163SL       C 2436   2.496   1.058   0.261
  163SL       C 2437   2.379   1.034   0.354
  163SL       H 2438   2.661   1.087   0.556
  163SL       H 2439   2.675   0.943   0.451
  163SL       H 2440   2.701   1.126   0.293
  163SL       H 2441   2.577   1.223   0.375
  163SL       H 2442   2.533   0.962   0.220
  163SL       H 2443   2.469   1.121   0.177
  163SL       H 2444   2.311   0.956   0.318
  163SL       H 2445   2.323   1.127   0.371
  164SL       O 2446   3.073   0.099   1.030
  164SL       S 2447   3.043   0.226   1.091
  164SL       O 2448   3.042   0.349   1.015
  164SL       C 2449   2.890   0.212   1.181
  164SL       C 2450   2.922   0.260   1.322
  164SL       C 2451   3.063   0.210   1.353
  164SL       C 2452   3.148   0.249   1.234
  164SL       H 2453   2.812   0.272   1.133
  164SL       H 2454   2.860   0.107   1.182
  164SL       H 2455   2.849   0.223   1.395
  164SL       H 2456   2.920   0.370   1.326
  164SL       H 2457   3.061   0.101   1.365
  164SL       H 2458   3.102   0.253   1.446
  164SL       H 2459   3.238   0.187   1.223
  164SL       H 2460   3.176   0.354   1.238
  165SL       O 2461   1.408   0.426   0.599
  165SL       S 2462   1.460   0.292   0.584
  165SL       O 2463   1.424   0.208   0.470
  165SL       C 2464   1.637   0.297   0.598
  165SL       C 2465   1.671   0.195   0.706
  165SL       C 2466   1.560   0.205   0.811
  165SL       C 2467   1.430   0.200   0.734
  165SL       H 2468   1.684   0.274   0.502
  165SL       H 2469   1.666   0.398   0.630
  165SL       H 2470   1.770   0.214   0.750
  165SL       H 2471   1.672   0.094   0.664
  165SL       H 2472   1.569   0.301   0.864
  165SL       H 2473   1.566   0.125   0.885
  165SL       H 2474   1.346   0.245   0.788
  165SL       H 2475   1.404   0.098   0.706
  166SL       O 2476   1.735   2.369   2.553
  166SL       S 2477   1.692   2.244   2.494
  166SL       O 2478   1.771   2.175   2.394
  166SL       C 2479   1.653   2.130   2.625
  166SL       C 2480   1.511   2.082   2.596
  166SL       C 2481   1.436   2.203   2.541
  166SL       C 2482   1.525   2.262   2.433
  166SL       H 2483   1.726   2.048   2.627
  166SL       H 2484   1.657   2.184   2.720
  166SL       H 2485   1.463   2.042   2.685
  166SL       H 2486   1.513   2.003   2.520
  166SL       H 2487   1.421   2.276   2.622
  166SL       H 2488   1.338   2.176   2.501
  166SL       H 2489   1.505   2.368   2.414
  166SL       H 2490   1.517   2.206   2.340
  167SL       O 2491   0.645   0.601   2.944
  167SL       S 2492   0.672   0.663   3.072
  167SL       O 2493   0.635   0.600   3.197
  167SL       C 2494   0.844   0.708   3.078
  167SL       C 2495   0.845   0.857   3.114
  167SL       C 2496   0.726   0.919   3.041
  167SL       C 2497   0.608   0.829   3.070
  167SL       H 2498   0.897   0.647   3.152
  167SL       H 2499   0.887   0.692   2.979
  167SL       H 2500   0.939   0.904   3.085
  167SL       H 2501   0.832   0.869   3.222
  167SL       H 2502   0.747   0.920   2.932
  167SL       H 2503   0.708   1.022   3.072
  167SL       H 2504   0.528   0.837   2.995
  167SL       H 2505   0.567   0.850   3.170
  168SL       O 2506   1.802   0.181   3.620
  168SL       S 2507   1.845   0.231   3.491
  168SL       O 2508   1.851   0.146   3.374
  168SL       C 2509   1.749   0.376   3.453
  168SL       C 2510   1.852   0.484   3.421
  168SL       C 2511   1.968   0.462   3.518
  168SL       C 2512   2.001   0.314   3.510
  168SL       H 2513   1.682   0.356   3.368
  168SL       H 2514   1.690   0.403   3.541
  168SL       H 2515   1.809   0.585   3.432
  168SL       H 2516   1.888   0.474   3.318
  168SL       H 2517   1.936   0.488   3.620
  168SL       H 2518   2.054   0.524   3.493
  168SL       H 2519   2.053   0.277   3.599
  168SL       H 2520   2.061   0.293   3.421
  169SL       O 2521   1.290   1.076   0.291
  169SL       S 2522   1.393   0.976   0.306
  169SL       O 2523   1.362   0.839   0.342
  169SL       C 2524   1.493   0.976   0.159
  169SL       C 2525   1.637   0.993   0.209
  169SL       C 2526   1.629   1.089   0.327
  169SL       C 2527   1.519   1.037   0.416
  169SL       H 2528   1.479   0.883   0.103
  169SL       H 2529   1.464   1.062   0.097
  169SL       H 2530   1.702   1.031   0.130
  169SL       H 2531   1.676   0.896   0.242
  169SL       H 2532   1.604   1.190   0.291
  169SL       H 2533   1.724   1.095   0.381
  169SL       H 2534   1.476   1.114   0.481
  169SL       H 2535   1.553   0.953   0.477
  170SL       O 2536   2.034   2.150   0.350
  170SL       S 2537   1.964   2.116   0.228
  170SL       O 2538   2.034   2.103   0.101
  170SL       C 2539   1.868   1.969   0.257
  170SL       C 2540   1.726   2.006   0.214
  170SL       C 2541   1.705   2.152   0.256
  170SL       C 2542   1.827   2.227   0.206
  170SL       H 2543   1.908   1.886   0.199
  170SL       H 2544   1.871   1.947   0.363
  170SL       H 2545   1.652   1.940   0.259
  170SL       H 2546   1.716   1.998   0.105
  170SL       H 2547   1.700   2.157   0.366
  170SL       H 2548   1.613   2.193   0.216
  170SL       H 2549   1.845   2.320   0.262
  170SL       H 2550   1.818   2.249   0.099
  171SL       O 2551   1.981   2.765   2.907
  171SL       S 2552   1.870   2.693   2.965
  171SL       O 2553   1.860   2.669   3.107
  171SL       C 2554   1.718   2.767   2.907
  171SL       C 2555   1.638   2.651   2.848
  171SL       C 2556   1.740   2.560   2.778
  171SL       C 2557   1.851   2.538   2.879
  171SL       H 2558   1.666   2.815   2.990
  171SL       H 2559   1.743   2.840   2.830
  171SL       H 2560   1.562   2.687   2.778
  171SL       H 2561   1.587   2.596   2.927
  171SL       H 2562   1.779   2.611   2.689
  171SL       H 2563   1.695   2.466   2.746
  171SL       H 2564   1.945   2.509   2.832
  171SL       H 2565   1.822   2.462   2.953
  172SL       O 2566   0.975   2.779   0.977
  172SL       S 2567   1.117   2.786   1.000
  172SL       O 2568   1.206   2.856   0.908
  172SL       C 2569   1.146   2.846   1.165
  172SL       C 2570   1.238   2.743   1.229
  172SL       C 2571   1.192   2.607   1.177
  172SL       C 2572   1.181   2.622   1.026
  172SL       H 2573   1.190   2.946   1.162
  172SL       H 2574   1.050   2.850   1.217
  172SL       H 2575   1.233   2.747   1.339
  172SL       H 2576   1.342   2.761   1.199
  172SL       H 2577   1.094   2.582   1.220
  172SL       H 2578   1.261   2.527   1.204
  172SL       H 2579   1.113   2.549   0.981
  172SL       H 2580   1.279   2.616   0.979
  173SL       O 2581   0.553   2.337   1.577
  173SL       S 2582   0.551   2.315   1.434
  173SL       O 2583   0.430   2.332   1.356
  173SL       C 2584   0.682   2.412   1.360
  173SL       C 2585   0.762   2.313   1.277
  173SL       C 2586   0.765   2.182   1.357
  173SL       C 2587   0.621   2.156   1.397
  173SL       H 2588   0.639   2.493   1.300
  173SL       H 2589   0.743   2.454   1.441
  173SL       H 2590   0.863   2.350   1.257
  173SL       H 2591   0.713   2.296   1.180
  173SL       H 2592   0.828   2.196   1.446
  173SL       H 2593   0.806   2.100   1.299
  173SL       H 2594   0.613   2.091   1.485
  173SL       H 2595   0.564   2.112   1.314
  174SL       O 2596   3.288   0.875   0.586
  174SL       S 2597   3.421   0.885   0.530
  174SL       O 2598   3.500   0.768   0.498
  174SL       C 2599   3.414   0.992   0.387
  174SL       C 2600   3.521   1.098   0.413
  174SL       C 2601   3.516   1.128   0.562
  174SL       C 2602   3.518   0.994   0.632
  174SL       H 2603   3.434   0.934   0.296
  174SL       H 2604   3.315   1.037   0.383
  174SL       H 2605   3.502   1.188   0.353
  174SL       H 2606   3.620   1.059   0.386
  174SL       H 2607   3.422   1.182   0.586
  174SL       H 2608   3.599   1.192   0.594
  174SL       H 2609   3.476   0.998   0.733
  174SL       H 2610   3.620   0.954   0.636
  175SL       O 2611   0.830   1.033   0.426
  175SL       S 2612   0.835   0.924   0.331
  175SL       O 2613   0.716   0.852   0.290
  175SL       C 2614   0.921   0.980   0.185
  175SL       C 2615   1.032   0.878   0.163
  175SL       C 2616   1.082   0.838   0.302
  175SL       C 2617   0.958   0.806   0.383
  175SL       H 2618   0.852   0.986   0.101
  175SL       H 2619   0.963   1.079   0.206
  175SL       H 2620   1.113   0.919   0.101
  175SL       H 2621   0.992   0.789   0.112
  175SL       H 2622   1.136   0.923   0.346
  175SL       H 2623   1.151   0.753   0.298
  175SL       H 2624   0.975   0.815   0.491
  175SL       H 2625   0.921   0.706   0.360
  176SL       O 2626   3.545   1.302   3.172
  176SL       S 2627   3.483   1.183   3.224
  176SL       O 2628   3.554   1.091   3.312
  176SL       C 2629   3.329   1.228   3.301
  176SL       C 2630   3.224   1.139   3.236
  176SL       C 2631   3.265   1.126   3.089
  176SL       C 2632   3.412   1.090   3.090
  176SL       H 2633   3.335   1.214   3.409
  176SL       H 2634   3.309   1.333   3.279
  176SL       H 2635   3.124   1.180   3.246
  176SL       H 2636   3.225   1.040   3.283
  176SL       H 2637   3.249   1.223   3.038
  176SL       H 2638   3.206   1.051   3.036
  176SL       H 2639   3.463   1.117   2.996
  176SL       H 2640   3.427   0.984   3.111
  177SL       O 2641   1.799   0.254   2.912
  177SL       S 2642   1.707   0.357   2.953
  177SL       O 2643   1.727   0.496   2.917
  177SL       C 2644   1.542   0.309   2.908
  177SL       C 2645   1.461   0.318   3.037
  177SL       C 2646   1.554   0.271   3.149
  177SL       C 2647   1.684   0.347   3.130
  177SL       H 2648   1.504   0.374   2.829
  177SL       H 2649   1.546   0.205   2.872
  177SL       H 2650   1.370   0.257   3.032
  177SL       H 2651   1.431   0.422   3.055
  177SL       H 2652   1.571   0.163   3.139
  177SL       H 2653   1.511   0.289   3.248
  177SL       H 2654   1.769   0.296   3.175
  177SL       H 2655   1.676   0.449   3.169
  178SL       O 2656   2.425   0.478   1.245
  178SL       S 2657   2.335   0.386   1.311
  178SL       O 2658   2.323   0.381   1.455
  178SL       C 2659   2.172   0.406   1.239
  178SL       C 2660   2.131   0.265   1.197
  178SL       C 2661   2.257   0.197   1.145
  178SL       C 2662   2.364   0.221   1.250
  178SL       H 2663   2.104   0.449   1.313
  178SL       H 2664   2.181   0.471   1.153
  178SL       H 2665   2.052   0.268   1.121
  178SL       H 2666   2.092   0.210   1.284
  178SL       H 2667   2.287   0.244   1.049
  178SL       H 2668   2.242   0.091   1.127
  178SL       H 2669   2.465   0.214   1.210
  178SL       H 2670   2.352   0.152   1.334
  179SL       O 2671   3.213   1.070   2.159
  179SL       S 2672   3.116   1.018   2.066
  179SL       O 2673   3.156   0.938   1.951
  179SL       C 2674   2.991   0.930   2.157
  179SL       C 2675   2.859   0.990   2.111
  179SL       C 2676   2.885   1.140   2.093
  179SL       C 2677   3.011   1.150   2.009
  179SL       H 2678   2.998   0.822   2.136
  179SL       H 2679   3.008   0.948   2.263
  179SL       H 2680   2.779   0.972   2.185
  179SL       H 2681   2.828   0.946   2.016
  179SL       H 2682   2.901   1.187   2.191
  179SL       H 2683   2.801   1.190   2.045
  179SL       H 2684   3.062   1.246   2.021
  179SL       H 2685   2.989   1.133   1.903
  180SL       O 2686   1.252   1.472   0.313
  180SL       S 2687   1.390   1.430   0.320
  180SL       O 2688   1.428   1.297   0.365
  180SL       C 2689   1.466   1.461   0.162
  180SL       C 2690   1.590   1.544   0.193
  180SL       C 2691   1.550   1.638   0.307
  180SL       C 2692   1.484   1.551   0.411
  180SL       H 2693   1.490   1.366   0.112
  180SL       H 2694   1.395   1.517   0.100
  180SL       H 2695   1.624   1.599   0.105
  180SL       H 2696   1.672   1.478   0.226
  180SL       H 2697   1.479   1.713   0.269
  180SL       H 2698   1.636   1.691   0.348
  180SL       H 2699   1.417   1.607   0.477
  180SL       H 2700   1.558   1.497   0.471
  181TfN      N 2701   1.795   0.731   1.187
  181TfN      C 2702   1.881   0.663   1.148
  181TfN      N 2703   1.992   0.579   1.106
  181TfN      S 2704   1.956   0.490   0.979
  181TfN      O 2705   1.901   0.562   0.865
  181TfN      O 2706   2.063   0.396   0.943
  181TfN      C 2707   1.820   0.384   1.046
  181TfN      F 2708   1.795   0.276   0.966
  181TfN      F 2709   1.701   0.450   1.057
  181TfN      F 2710   1.849   0.334   1.170
  182TfN      N 2711   0.971   2.676   1.991
  182TfN      C 2712   1.007   2.602   2.073
  182TfN      N 2713   1.045   2.510   2.179
  182TfN      S 2714   1.147   2.398   2.128
  182TfN      O 2715   1.265   2.447   2.058
  182TfN      O 2716   1.178   2.298   2.231
  182TfN      C 2717   1.045   2.308   2.003
  182TfN      F 2718   1.098   2.187   1.971
  182TfN      F 2719   1.031   2.376   1.886
  182TfN      F 2720   0.918   2.283   2.049
  183TfN      N 2721   0.972   1.843   1.317
  183TfN      C 2722   0.935   1.737   1.346
  183TfN      N 2723   0.884   1.604   1.376
  183TfN      S 2724   0.979   1.525   1.477
  183TfN      O 2725   1.013   1.596   1.601
  183TfN      O 2726   0.936   1.387   1.500
  183TfN      C 2727   1.135   1.512   1.379
  183TfN      F 2728   1.220   1.418   1.431
  183TfN      F 2729   1.206   1.628   1.374
  183TfN      F 2730   1.112   1.474   1.250
  184TfN      N 2731   1.874   2.983   1.085
  184TfN      C 2732   1.797   3.030   1.011
  184TfN      N 2733   1.706   3.085   0.912
  184TfN      S 2734   1.561   3.112   0.973
  184TfN      O 2735   1.557   3.190   1.097
  184TfN      O 2736   1.464   3.157   0.873
  184TfN      C 2737   1.507   2.940   1.017
  184TfN      F 2738   1.373   2.933   1.040
  184TfN      F 2739   1.566   2.893   1.130
  184TfN      F 2740   1.534   2.851   0.917
  185TfN      N 2741   1.320   3.180   0.674
  185TfN      C 2742   1.352   3.138   0.571
  185TfN      N 2743   1.399   3.087   0.443
  185TfN      S 2744   1.303   2.975   0.383
  185TfN      O 2745   1.161   3.011   0.375
  185TfN      O 2746   1.354   2.915   0.260
  185TfN      C 2747   1.316   2.842   0.511
  185TfN      F 2748   1.269   2.722   0.465
  185TfN      F 2749   1.245   2.869   0.624
  185TfN      F 2750   1.446   2.820   0.549
  186TfN      N 2751   3.128   1.869   3.192
  186TfN      C 2752   3.086   1.763   3.171
  186TfN      N 2753   3.028   1.631   3.149
  186TfN      S 2754   3.067   1.571   3.007
  186TfN      O 2755   3.209   1.569   2.975
  186TfN      O 2756   3.000   1.443   2.978
  186TfN      C 2757   2.988   1.693   2.892
  186TfN      F 2758   2.978   1.645   2.765
  186TfN      F 2759   3.058   1.809   2.882
  186TfN      F 2760   2.861   1.725   2.930
  187TfN      N 2761   3.463   1.566   1.101
  187TfN      C 2762   3.515   1.669   1.101
  187TfN      N 2763   3.581   1.799   1.094
  187TfN      S 2764   3.564   1.883   1.229
  187TfN      O 2765   3.602   1.813   1.352
  187TfN      O 2766   3.620   2.018   1.220
  187TfN      C 2767   3.381   1.907   1.235
  187TfN      F 2768   3.345   2.004   1.323
  187TfN      F 2769   3.314   1.795   1.274
  187TfN      F 2770   3.330   1.944   1.114
  188TfN      N 2771   2.282   2.641   1.666
  188TfN      C 2772   2.346   2.546   1.686
  188TfN      N 2773   2.432   2.432   1.714
  188TfN      S 2774   2.350   2.296   1.721
  188TfN      O 2775   2.263   2.267   1.607
  188TfN      O 2776   2.432   2.181   1.761
  188TfN      C 2777   2.238   2.326   1.865
  188TfN      F 2778   2.183   2.211   1.913
  188TfN      F 2779   2.135   2.409   1.836
  188TfN      F 2780   2.305   2.382   1.971
  189TfN      N 2781   0.684   0.450   1.906
  189TfN      C 2782   0.695   0.460   1.790
  189TfN      N 2783   0.700   0.476   1.646
  189TfN      S 2784   0.844   0.520   1.595
  189TfN      O 2785   0.956   0.438   1.642
  189TfN      O 2786   0.849   0.546   1.451
  189TfN      C 2787   0.863   0.685   1.675
  189TfN      F 2788   0.964   0.758   1.620
  189TfN      F 2789   0.891   0.678   1.808
  189TfN      F 2790   0.750   0.762   1.663
  190TfN      N 2791   3.183   0.826   2.379
  190TfN      C 2792   3.251   0.920   2.365
  190TfN      N 2793   3.330   1.040   2.343
  190TfN      S 2794   3.419   1.078   2.470
  190TfN      O 2795   3.502   0.971   2.523
  190TfN      O 2796   3.491   1.205   2.453
  190TfN      C 2797   3.290   1.112   2.597
  190TfN      F 2798   3.340   1.180   2.704
  190TfN      F 2799   3.232   1.000   2.647
  190TfN      F 2800   3.188   1.190   2.548
  191TfN      N 2801   2.882   1.612   2.261
  191TfN      C 2802   2.947   1.704   2.235
  191TfN      N 2803   3.035   1.814   2.199
  191TfN      S 2804   2.954   1.949   2.173
  191TfN      O 2805   2.862   1.990   2.278
  191TfN      O 2806   3.040   2.059   2.126
  191TfN      C 2807   2.851   1.903   2.027
  191TfN      F 2808   2.799   2.012   1.964
  191TfN      F 2809   2.745   1.824   2.059
  191TfN      F 2810   2.923   1.836   1.931
  192TfN      N 2811   1.670   2.704   1.700
  192TfN      C 2812   1.656   2.628   1.614
  192TfN      N 2813   1.645   2.529   1.508
  192TfN      S 2814   1.495   2.513   1.456
  192TfN      O 2815   1.427   2.637   1.418
  192TfN      O 2816   1.479   2.406   1.357
  192TfN      C 2817   1.409   2.451   1.608
  192TfN      F 2818   1.288   2.397   1.580
  192TfN      F 2819   1.387   2.548   1.700
  192TfN      F 2820   1.481   2.352   1.670
  193TfN      N 2821   0.665   1.700   2.027
  193TfN      C 2822   0.673   1.809   1.987
  193TfN      N 2823   0.691   1.944   1.935
  193TfN      S 2824   0.552   2.014   1.900
  193TfN      O 2825   0.452   2.013   2.007
  193TfN      O 2826   0.568   2.145   1.837
  193TfN      C 2827   0.488   1.904   1.766
  193TfN      F 2828   0.387   1.962   1.696
  193TfN      F 2829   0.438   1.786   1.813
  193TfN      F 2830   0.585   1.873   1.674
  194TfN      N 2831   2.438   0.574   2.599
  194TfN      C 2832   2.425   0.458   2.597
  194TfN      N 2833   2.406   0.314   2.602
  194TfN      S 2834   2.404   0.249   2.457
  194TfN      O 2835   2.517   0.282   2.370
  194TfN      O 2836   2.374   0.105   2.459
  194TfN      C 2837   2.255   0.328   2.382
  194TfN      F 2838   2.212   0.263   2.270
  194TfN      F 2839   2.276   0.457   2.344
  194TfN      F 2840   2.148   0.329   2.468
  195TfN      N 2841   3.616   0.566   2.185
  195TfN      C 2842   3.546   0.484   2.228
  195TfN      N 2843   3.461   0.383   2.290
  195TfN      S 2844   3.338   0.344   2.198
  195TfN      O 2845   3.371   0.306   2.060
  195TfN      O 2846   3.244   0.252   2.262
  195TfN      C 2847   3.246   0.505   2.187
  195TfN      F 2848   3.119   0.488   2.142
  195TfN      F 2849   3.305   0.594   2.103
  195TfN      F 2850   3.235   0.566   2.309
  196TfN      N 2851   3.457   2.282   2.967
  196TfN      C 2852   3.378   2.251   3.046
  196TfN      N 2853   3.282   2.218   3.150
  196TfN      S 2854   3.146   2.160   3.091
  196TfN      O 2855   3.160   2.049   2.997
  196TfN      O 2856   3.043   2.136   3.193
  196TfN      C 2857   3.083   2.304   2.993
  196TfN      F 2858   2.952   2.291   2.960
  196TfN      F 2859   3.150   2.322   2.875
  196TfN      F 2860   3.094   2.422   3.063
  197TfN      N 2861   0.918   0.759   2.605
  197TfN      C 2862   0.977   0.855   2.576
  197TfN      N 2863   1.050   0.972   2.531
  197TfN      S 2864   1.023   1.099   2.624
  197TfN      O 2865   1.043   1.078   2.767
  197TfN      O 2866   1.087   1.221   2.574
  197TfN      C 2867   0.842   1.126   2.599
  197TfN      F 2868   0.802   1.249   2.641
  197TfN      F 2869   0.764   1.036   2.666
  197TfN      F 2870   0.806   1.118   2.467
  198TfN      N 2871   3.036   3.074   2.372
  198TfN      C 2872   3.035   2.958   2.363
  198TfN      N 2873   3.035   2.814   2.344
  198TfN      S 2874   3.077   2.736   2.476
  198TfN      O 2875   3.004   2.772   2.598
  198TfN      O 2876   3.089   2.591   2.457
  198TfN      C 2877   3.251   2.795   2.500
  198TfN      F 2878   3.320   2.716   2.587
  198TfN      F 2879   3.259   2.922   2.550
  198TfN      F 2880   3.322   2.794   2.383
  199TfN      N 2881   0.484   0.552   2.373
  199TfN      C 2882   0.537   0.449   2.378
  199TfN      N 2883   0.603   0.320   2.391
  199TfN      S 2884   0.594   0.234   2.257
  199TfN      O 2885   0.638   0.302   2.135
  199TfN      O 2886   0.649   0.099   2.272
  199TfN      C 2887   0.411   0.209   2.241
  199TfN      F 2888   0.381   0.109   2.153
  199TfN      F 2889   0.346   0.320   2.197
  199TfN      F 2890   0.353   0.173   2.360
  200TfN      N 2891   3.561   1.400   3.369
  200TfN      C 2892   3.489   1.491   3.370
  200TfN      N 2893   3.398   1.604   3.364
  200TfN      S 2894   3.325   1.630   3.504
  200TfN      O 2895   3.412   1.641   3.620
  200TfN      O 2896   3.224   1.737   3.497
  200TfN      C 2897   3.228   1.474   3.525
  200TfN      F 2898   3.131   1.486   3.619
  200TfN      F 2899   3.304   1.368   3.563
  200TfN      F 2900   3.164   1.437   3.409
  201TfN      N 2901   2.387   2.847   3.188
  201TfN      C 2902   2.460   2.758   3.169
  201TfN      N 2903   2.551   2.646   3.153
  201TfN      S 2904   2.530   2.572   3.013
  201TfN      O 2905   2.533   2.658   2.894
  201TfN      O 2906   2.613   2.452   2.999
  201TfN      C 2907   2.357   2.509   3.029
  201TfN      F 2908   2.329   2.413   2.936
  201TfN      F 2909   2.263   2.606   3.012
  201TfN      F 2910   2.334   2.451   3.151
  202TfN      N 2911   1.968   0.364   2.651
  202TfN      C 2912   1.897   0.379   2.561
  202TfN      N 2913   1.813   0.392   2.442
  202TfN      S 2914   1.660   0.418   2.479
  202TfN      O 2915   1.636   0.528   2.573
  202TfN      O 2916   1.572   0.421   2.362
  202TfN      C 2917   1.616   0.262   2.569
  202TfN      F 2918   1.482   0.246   2.580
  202TfN      F 2919   1.666   0.257   2.695
  202TfN      F 2920   1.662   0.151   2.503
  203TfN      N 2921   1.404   3.362   1.289
  203TfN      C 2922   1.326   3.389   1.371
  203TfN      N 2923   1.223   3.420   1.469
  203TfN      S 2924   1.276   3.405   1.619
  203TfN      O 2925   1.400   3.476   1.650
  203TfN      O 2926   1.171   3.426   1.719
  203TfN      C 2927   1.315   3.225   1.627
  203TfN      F 2928   1.329   3.181   1.755
  203TfN      F 2929   1.430   3.192   1.563
  203TfN      F 2930   1.216   3.148   1.572
  204TfN      N 2931   2.810   1.911   0.551
  204TfN      C 2932   2.816   1.801   0.517
  204TfN      N 2933   2.817   1.663   0.469
  204TfN      S 2934   2.965   1.604   0.459
  204TfN      O 2935   3.047   1.618   0.579
  204TfN      O 2936   2.969   1.469   0.401
  204TfN      C 2937   3.040   1.714   0.331
  204TfN      F 2938   3.156   1.662   0.280
  204TfN      F 2939   3.073   1.837   0.378
  204TfN      F 2940   2.957   1.733   0.224
  205TfN      N 2941   2.822   3.463   1.384
  205TfN      C 2942   2.768   3.481   1.283
  205TfN      N 2943   2.707   3.508   1.153
  205TfN      S 2944   2.603   3.395   1.112
  205TfN      O 2945   2.500   3.363   1.211
  205TfN      O 2946   2.548   3.413   0.977
  205TfN      C 2947   2.712   3.246   1.099
  205TfN      F 2948   2.652   3.144   1.031
  205TfN      F 2949   2.747   3.195   1.220
  205TfN      F 2950   2.828   3.273   1.031
  206TfN      N 2951   0.233   0.245   1.105
  206TfN      C 2952   0.247   0.356   1.077
  206TfN      N 2953   0.270   0.497   1.047
  206TfN      S 2954   0.251   0.530   0.892
  206TfN      O 2955   0.125   0.484   0.833
  206TfN      O 2956   0.283   0.668   0.858
  206TfN      C 2957   0.385   0.429   0.816
  206TfN      F 2958   0.411   0.466   0.687
  206TfN      F 2959   0.356   0.296   0.811
  206TfN      F 2960   0.504   0.441   0.883
  207TfN      N 2961   1.051   0.234   3.518
  207TfN      C 2962   1.101   0.177   3.429
  207TfN      N 2963   1.161   0.099   3.322
  207TfN      S 2964   1.171   0.182   3.186
  207TfN      O 2965   1.235   0.313   3.196
  207TfN      O 2966   1.221   0.102   3.074
  207TfN      C 2967   0.993   0.212   3.148
  207TfN      F 2968   0.974   0.251   3.019
  207TfN      F 2969   0.937   0.310   3.225
  207TfN      F 2970   0.916   0.100   3.165
  208TfN      N 2971   2.188   2.264   3.620
  208TfN      C 2972   2.107   2.181   3.616
  208TfN      N 2973   2.005   2.077   3.620
  208TfN      S 2974   1.921   2.070   3.485
  208TfN      O 2975   1.998   2.062   3.362
  208TfN      O 2976   1.810   1.974   3.490
  208TfN      C 2977   1.839   2.236   3.484
  208TfN      F 2978   1.735   2.242   3.397
  208TfN      F 2979   1.923   2.337   3.449
  208TfN      F 2980   1.787   2.268   3.607
  209TfN      N 2981   0.663   0.829   3.621
  209TfN      C 2982   0.572   0.857   3.554
  209TfN      N 2983   0.454   0.888   3.475
  209TfN      S 2984   0.474   1.020   3.387
  209TfN      O 2985   0.594   1.023   3.303
  209TfN      O 2986   0.352   1.060   3.315
  209TfN      C 2987   0.497   1.149   3.517
  209TfN      F 2988   0.481   1.275   3.468
  209TfN      F 2989   0.620   1.146   3.574
  209TfN      F 2990   0.406   1.137   3.619
  210TfN      N 2991   0.745   0.100   3.536
  210TfN      C 2992   0.654   0.167   3.510
  210TfN      N 2993   0.542   0.256   3.483
  210TfN      S 2994   0.485   0.237   3.336
  210TfN      O 2995   0.452   0.100   3.297
  210TfN      O 2996   0.379   0.333   3.303
  210TfN      C 2997   0.629   0.288   3.233
  210TfN      F 2998   0.594   0.313   3.104
  210TfN      F 2999   0.727   0.193   3.227
  210TfN      F 3000   0.688   0.403   3.279
  211TfN      N 3001   2.753   2.796   1.049
  211TfN      C 3002   2.867   2.811   1.030
  211TfN      N 3003   3.010   2.821   1.004
  211TfN      S 3004   3.051   2.968   0.957
  211TfN      O 3005   3.006   3.077   1.043
  211TfN      O 3006   3.193   2.978   0.920
  211TfN      C 3007   2.959   2.983   0.798
  211TfN      F 3008   3.005   3.086   0.721
  211TfN      F 3009   2.826   3.006   0.815
  211TfN      F 3010   2.970   2.871   0.721
  212TfN      N 3011   2.356   0.237   2.106
  212TfN      C 3012   2.455   0.175   2.102
  212TfN      N 3013   2.575   0.093   2.092
  212TfN      S 3014   2.706   0.174   2.131
  212TfN      O 3015   2.702   0.244   2.260
  212TfN      O 3016   2.829   0.097   2.111
  212TfN      C 3017   2.710   0.305   2.001
  212TfN      F 3018   2.831   0.366   1.992
  212TfN      F 3019   2.620   0.405   2.022
  212TfN      F 3020   2.684   0.254   1.876
  213TfN      N 3021   2.330   1.324   2.452
  213TfN      C 3022   2.315   1.439   2.438
  213TfN      N 3023   2.295   1.583   2.430
  213TfN      S 3024   2.368   1.646   2.303
  213TfN      O 3025   2.339   1.582   2.174
  213TfN      O 3026   2.359   1.792   2.298
  213TfN      C 3027   2.546   1.610   2.340
  213TfN      F 3028   2.630   1.684   2.263
  213TfN      F 3029   2.580   1.480   2.318
  213TfN      F 3030   2.578   1.639   2.470
  214TfN      N 3031   2.459   1.318   1.218
  214TfN      C 3032   2.432   1.429   1.242
  214TfN      N 3033   2.401   1.566   1.280
  214TfN      S 3034   2.415   1.666   1.157
  214TfN      O 3035   2.344   1.629   1.035
  214TfN      O 3036   2.395   1.807   1.196
  214TfN      C 3037   2.595   1.653   1.119
  214TfN      F 3038   2.639   1.755   1.040
  214TfN      F 3039   2.628   1.539   1.053
  214TfN      F 3040   2.673   1.657   1.232
  215TfN      N 3041   1.010   1.513   3.001
  215TfN      C 3042   0.998   1.578   2.906
  215TfN      N 3043   0.988   1.666   2.791
  215TfN      S 3044   0.960   1.585   2.656
  215TfN      O 3045   0.847   1.492   2.660
  215TfN      O 3046   0.960   1.670   2.537
  215TfN      C 3047   1.113   1.482   2.642
  215TfN      F 3048   1.128   1.430   2.517
  215TfN      F 3049   1.114   1.377   2.727
  215TfN      F 3050   1.226   1.555   2.666
  216TfN      N 3051   1.224   2.876   3.108
  216TfN      C 3052   1.229   2.761   3.125
  216TfN      N 3053   1.240   2.617   3.141
  216TfN      S 3054   1.212   2.570   3.291
  216TfN      O 3055   1.087   2.619   3.350
  216TfN      O 3056   1.233   2.427   3.312
  216TfN      C 3057   1.349   2.653   3.383
  216TfN      F 3058   1.367   2.601   3.507
  216TfN      F 3059   1.329   2.787   3.400
  216TfN      F 3060   1.470   2.639   3.319
  217TfN      N 3061   0.100   1.409   2.336
  217TfN      C 3062   0.102   1.525   2.330
  217TfN      N 3063   0.103   1.671   2.330
  217TfN      S 3064   0.172   1.730   2.199
  217TfN      O 3065   0.119   1.680   2.072
  217TfN      O 3066   0.185   1.877   2.202
  217TfN      C 3067   0.344   1.667   2.214
  217TfN      F 3068   0.431   1.732   2.132
  217TfN      F 3069   0.356   1.535   2.183
  217TfN      F 3070   0.394   1.682   2.341
  218TfN      N 3071   3.515   1.923   2.331
  218TfN      C 3072   3.411   1.975   2.341
  218TfN      N 3073   3.282   2.039   2.360
  218TfN      S 3074   3.247   2.140   2.242
  218TfN      O 3075   3.257   2.085   2.106
  218TfN      O 3076   3.122   2.214   2.264
  218TfN      C 3077   3.381   2.266   2.258
  218TfN      F 3078   3.353   2.380   2.190
  218TfN      F 3079   3.501   2.223   2.211
  218TfN      F 3080   3.400   2.303   2.388
  219TfN      N 3081   0.679   1.076   0.897
  219TfN      C 3082   0.623   0.996   0.835
  219TfN      N 3083   0.552   0.901   0.750
  219TfN      S 3084   0.593   0.750   0.783
  219TfN      O 3085   0.584   0.711   0.923
  219TfN      O 3086   0.530   0.653   0.692
  219TfN      C 3087   0.772   0.749   0.739
  219TfN      F 3088   0.821   0.622   0.726
  219TfN      F 3089   0.850   0.810   0.832
  219TfN      F 3090   0.796   0.811   0.619
  220TfN      N 3091   1.970   0.899   1.658
  220TfN      C 3092   2.085   0.882   1.651
  220TfN      N 3093   2.227   0.854   1.636
  220TfN      S 3094   2.317   0.979   1.677
  220TfN      O 3095   2.289   1.036   1.809
  220TfN      O 3096   2.460   0.958   1.652
  220TfN      C 3097   2.265   1.105   1.553
  220TfN      F 3098   2.353   1.210   1.546
  220TfN      F 3099   2.143   1.160   1.579
  220TfN      F 3100   2.258   1.053   1.426
  221TfN      N 3101   0.110   2.703   3.529
  221TfN      C 3102   0.215   2.670   3.567
  221TfN      N 3103   0.343   2.627   3.623
  221TfN      S 3104   0.444   2.578   3.510
  221TfN      O 3105   0.464   2.670   3.398
  221TfN      O 3106   0.569   2.524   3.564
  221TfN      C 3107   0.354   2.431   3.441
  221TfN      F 3108   0.436   2.352   3.367
  221TfN      F 3109   0.250   2.465   3.360
  221TfN      F 3110   0.303   2.351   3.540
  222TfN      N 3111   0.135   1.246   0.588
  222TfN      C 3112   0.230   1.243   0.654
  222TfN      N 3113   0.346   1.232   0.742
  222TfN      S 3114   0.481   1.274   0.669
  222TfN      O 3115   0.479   1.404   0.601
  222TfN      O 3116   0.600   1.254   0.752
  222TfN      C 3117   0.493   1.146   0.536
  222TfN      F 3118   0.617   1.139   0.482
  222TfN      F 3119   0.407   1.168   0.433
  222TfN      F 3120   0.466   1.020   0.584
  223TfN      N 3121   2.357   0.316   1.790
  223TfN      C 3122   2.464   0.348   1.757
  223TfN      N 3123   2.600   0.389   1.723
  223TfN      S 3124   2.642   0.342   1.577
  223TfN      O 3125   2.549   0.379   1.470
  223TfN      O 3126   2.782   0.372   1.545
  223TfN      C 3127   2.634   0.158   1.592
  223TfN      F 3128   2.698   0.095   1.490
  223TfN      F 3129   2.507   0.109   1.592
  223TfN      F 3130   2.693   0.113   1.708
  224TfN      N 3131   3.366   0.644   1.550
  224TfN      C 3132   3.281   0.712   1.510
  224TfN      N 3133   3.170   0.791   1.458
  224TfN      S 3134   3.174   0.941   1.511
  224TfN      O 3135   3.300   1.013   1.491
  224TfN      O 3136   3.057   1.020   1.469
  224TfN      C 3137   3.154   0.918   1.693
  224TfN      F 3138   3.119   1.034   1.756
  224TfN      F 3139   3.267   0.874   1.754
  224TfN      F 3140   3.055   0.828   1.723
  225TfN      N 3141   2.367   0.535   3.359
  225TfN      C 3142   2.447   0.451   3.358
  225TfN      N 3143   2.546   0.345   3.365
  225TfN      S 3144   2.567   0.273   3.224
  225TfN      O 3145   2.594   0.361   3.111
  225TfN      O 3146   2.658   0.159   3.231
  225TfN      C 3147   2.400   0.199   3.195
  225TfN      F 3148   2.402   0.104   3.098
  225TfN      F 3149   2.307   0.291   3.156
  225TfN      F 3150   2.351   0.138   3.307
  226TfN      N 3151   0.584   3.308   2.699
  226TfN      C 3152   0.477   3.263   2.699
  226TfN      N 3153   0.342   3.208   2.692
  226TfN      S 3154   0.315   3.102   2.808
  226TfN      O 3155   0.344   3.148   2.944
  226TfN      O 3156   0.184   3.037   2.796
  226TfN      C 3157   0.438   2.970   2.768
  226TfN      F 3158   0.410   2.853   2.833
  226TfN      F 3159   0.565   3.003   2.803
  226TfN      F 3160   0.439   2.940   2.635
  227TfN      N 3161   1.337   2.398   1.854
  227TfN      C 3162   1.310   2.286   1.855
  227TfN      N 3163   1.274   2.144   1.847
  227TfN      S 3164   1.333   2.062   1.970
  227TfN      O 3165   1.302   2.115   2.103
  227TfN      O 3166   1.308   1.917   1.959
  227TfN      C 3167   1.515   2.081   1.946
  227TfN      F 3168   1.586   1.991   2.019
  227TfN      F 3169   1.561   2.204   1.982
  227TfN      F 3170   1.552   2.062   1.815
  228TfN      N 3171   3.435   3.003   2.141
  228TfN      C 3172   3.388   3.094   2.086
  228TfN      N 3173   3.322   3.207   2.022
  228TfN      S 3174   3.426   3.301   1.945
  228TfN      O 3175   3.516   3.234   1.851
  228TfN      O 3176   3.364   3.422   1.889
  228TfN      C 3177   3.532   3.361   2.085
  228TfN      F 3178   3.606   3.470   2.049
  228TfN      F 3179   3.620   3.268   2.129
  228TfN      F 3180   3.457   3.400   2.193
  229TfN      N 3181   1.515   1.271   1.718
  229TfN      C 3182   1.476   1.179   1.658
  229TfN      N 3183   1.433   1.065   1.579
  229TfN      S 3184   1.344   0.963   1.663
  229TfN      O 3185   1.231   1.021   1.734
  229TfN      O 3186   1.309   0.842   1.588
  229TfN      C 3187   1.464   0.906   1.791
  229TfN      F 3188   1.423   0.793   1.855
  229TfN      F 3189   1.485   0.998   1.889
  229TfN      F 3190   1.587   0.877   1.738
  230TfN      N 3191   1.051   1.852   0.676
  230TfN      C 3192   1.105   1.955   0.680
  230TfN      N 3193   1.170   2.085   0.677
  230TfN      S 3194   1.172   2.155   0.820
  230TfN      O 3195   1.225   2.074   0.929
  230TfN      O 3196   1.227   2.291   0.817
  230TfN      C 3197   0.991   2.178   0.853
  230TfN      F 3198   0.968   2.266   0.954
  230TfN      F 3199   0.929   2.063   0.889
  230TfN      F 3200   0.925   2.227   0.744
  231TfN      N 3201   1.799   1.946   1.090
  231TfN      C 3202   1.747   1.846   1.060
  231TfN      N 3203   1.675   1.725   1.023
  231TfN      S 3204   1.767   1.624   0.941
  231TfN      O 3205   1.896   1.591   1.002
  231TfN      O 3206   1.694   1.506   0.893
  231TfN      C 3207   1.804   1.722   0.789
  231TfN      F 3208   1.852   1.644   0.688
  231TfN      F 3209   1.897   1.819   0.809
  231TfN      F 3210   1.692   1.784   0.739
  232TfN      N 3211   1.812   1.297   3.345
  232TfN      C 3212   1.840   1.352   3.247
  232TfN      N 3213   1.881   1.425   3.128
  232TfN      S 3214   1.853   1.343   2.995
  232TfN      O 3215   1.716   1.292   2.979
  232TfN      O 3216   1.903   1.410   2.874
  232TfN      C 3217   1.962   1.196   3.017
  232TfN      F 3218   1.981   1.128   2.901
  232TfN      F 3219   1.913   1.105   3.106
  232TfN      F 3220   2.087   1.231   3.061
  233TfN      N 3221   1.866   1.475   0.333
  233TfN      C 3222   1.963   1.538   0.337
  233TfN      N 3223   2.085   1.617   0.351
  233TfN      S 3224   2.172   1.616   0.217
  233TfN      O 3225   2.101   1.653   0.095
  233TfN      O 3226   2.301   1.685   0.232
  233TfN      C 3227   2.215   1.437   0.201
  233TfN      F 3228   2.318   1.416   0.114
  233TfN      F 3229   2.112   1.361   0.157
  233TfN      F 3230   2.256   1.383   0.320
  234TfN      N 3231   0.484   1.862   2.678
  234TfN      C 3232   0.532   1.919   2.589
  234TfN      N 3233   0.598   1.994   2.482
  234TfN      S 3234   0.577   1.925   2.340
  234TfN      O 3235   0.439   1.894   2.303
  234TfN      O 3236   0.652   1.992   2.233
  234TfN      C 3237   0.663   1.763   2.364
  234TfN      F 3238   0.689   1.701   2.246
  234TfN      F 3239   0.591   1.674   2.438
  234TfN      F 3240   0.784   1.778   2.426
  235TfN      N 3241   1.577   1.071   1.060
  235TfN      C 3242   1.508   0.995   1.115
  235TfN      N 3243   1.427   0.901   1.190
  235TfN      S 3244   1.275   0.901   1.143
  235TfN      O 3245   1.253   0.884   0.999
  235TfN      O 3246   1.189   0.814   1.224
  235TfN      C 3247   1.223   1.073   1.184
  235TfN      F 3248   1.087   1.087   1.185
  235TfN      F 3249   1.270   1.166   1.097
  235TfN      F 3250   1.265   1.111   1.309
  236TfN      N 3251   2.643   0.261   0.100
  236TfN      C 3252   2.566   0.297   0.179
  236TfN      N 3253   2.470   0.349   0.276
  236TfN      S 3254   2.376   0.234   0.334
  236TfN      O 3255   2.444   0.117   0.388
  236TfN      O 3256   2.271   0.286   0.423
  236TfN      C 3257   2.286   0.178   0.182
  236TfN      F 3258   2.176   0.105   0.211
  236TfN      F 3259   2.363   0.100   0.101
  236TfN      F 3260   2.243   0.284   0.106
  237TfN      N 3261   2.198   3.061   2.902
  237TfN      C 3262   2.086   3.036   2.883
  237TfN      N 3263   1.948   2.998   2.857
  237TfN      S 3264   1.845   3.076   2.950
  237TfN      O 3265   1.859   3.222   2.951
  237TfN      O 3266   1.706   3.032   2.933
  237TfN      C 3267   1.894   3.017   3.118
  237TfN      F 3268   1.799   3.044   3.212
  237TfN      F 3269   2.009   3.075   3.164
  237TfN      F 3270   1.914   2.882   3.121
  238TfN      N 3271   1.648   0.319   2.134
  238TfN      C 3272   1.629   0.433   2.142
  238TfN      N 3273   1.612   0.578   2.149
  238TfN      S 3274   1.459   0.621   2.135
  238TfN      O 3275   1.365   0.554   2.226
  238TfN      O 3276   1.440   0.766   2.131
  238TfN      C 3277   1.419   0.563   1.965
  238TfN      F 3278   1.304   0.619   1.917
  238TfN      F 3279   1.401   0.428   1.957
  238TfN      F 3280   1.517   0.595   1.875
  239TfN      N 3281   1.017   1.851   0.954
  239TfN      C 3282   0.904   1.830   0.941
  239TfN      N 3283   0.763   1.798   0.928
  239TfN      S 3284   0.672   1.928   0.913
  239TfN      O 3285   0.713   2.022   0.808
  239TfN      O 3286   0.529   1.899   0.911
  239TfN      C 3287   0.701   2.013   1.074
  239TfN      F 3288   0.608   2.110   1.099
  239TfN      F 3289   0.822   2.075   1.081
  239TfN      F 3290   0.695   1.926   1.180
  240TfN      N 3291   2.912   0.410   2.597
  240TfN      C 3292   2.955   0.518   2.585
  240TfN      N 3293   3.009   0.651   2.563
  240TfN      S 3294   2.961   0.754   2.674
  240TfN      O 3295   2.983   0.713   2.813
  240TfN      O 3296   3.005   0.892   2.648
  240TfN      C 3297   2.778   0.757   2.648
  240TfN      F 3298   2.719   0.863   2.709
  240TfN      F 3299   2.716   0.646   2.697
  240TfN      F 3300   2.745   0.766   2.516
  241LI      Li 3301   3.509   2.298   0.428
  242LI      Li 3302   1.665   3.200   1.298
  243LI      Li 3303   2.319   2.058   1.566
  244LI      Li 3304   1.223   1.792   1.226
  245LI      Li 3305   3.278   0.795   0.133
  246LI      Li 3306   3.583   3.435   1.722
  247LI      Li 3307   2.491   1.022   3.387
  248LI      Li 3308   1.862   0.375   1.967
  249LI      Li 3309   3.007   2.876   1.288
  250LI      Li 3310   3.370   2.234   1.990
  251LI      Li 3311   0.817   0.311   2.343
  252LI      Li 3312   2.541   3.620   1.918
  253LI      Li 3313   1.591   3.581   1.782
  254LI      Li 3314   0.316   0.616   2.500
  255LI      Li 3315   1.163   1.750   2.587
  256LI      Li 3316   3.463   2.805   2.840
  257LI      Li 3317   0.836   1.293   1.329
  258LI      Li 3318   3.165   0.749   1.242
  259LI      Li 3319   1.884   3.229   1.044
  260LI      Li 3320   2.894   2.511   1.226
  261LI      Li 3321   1.819   0.552   0.661
  262LI      Li 3322   0.100   2.019   1.711
  263LI      Li 3323   2.452   2.041   0.981
  264LI      Li 3324   2.671   0.528   0.981
  265LI      Li 3325   3.178   1.430   0.826
  266LI      Li 3326   3.498   0.613   2.464
  267LI      Li 3327   1.099   0.384   3.354
  268LI      Li 3328   0.477   1.146   2.213
  269LI      Li 3329   0.556   0.527   3.553
  270LI      Li 3330   1.498   2.499   2.627
  271LI      Li 3331   0.926   2.891   2.877
  272LI      Li 3332   2.991   2.905   0.335
  273LI      Li 3333   1.058   3.217   0.889
  274LI      Li 3334   2.836   2.734   2.061
  275LI      Li 3335   2.806   0.909   3.604
  276LI      Li 3336   0.910   0.837   2.811
  277LI      Li 3337   1.945   2.966   3.426
  278LI      Li 3338   2.020   0.916   0.339
  279LI      Li 3339   2.183   3.597   3.272
  280LI      Li 3340   2.312   0.211   1.592
  281LI      Li 3341   3.161   0.189   1.692
  282LI      Li 3342   0.251   1.989   1.867
  283LI      Li 3343   1.599   3.424   0.270
  284LI      Li 3344   2.196   2.960   3.151
  285LI      Li 3345   1.456   1.707   0.899
  286LI      Li 3346   1.222   1.245   1.566
  287LI      Li 3347   2.984   2.030   0.488
  288LI      Li 3348   3.451   2.643   0.361
  289LI      Li 3349   3.004   1.464   2.369
  290LI      Li 3350   0.930   0.579   0.539
  291LI      Li 3351   1.300   0.963   3.510
  292LI      Li 3352   1.731   0.724   2.602
  293LI      Li 3353   0.613   1.492   3.385
  294LI      Li 3354   0.373   2.818   0.889
  295LI      Li 3355   0.817   3.090   1.955
  296LI      Li 3356   2.720   0.595   1.982
  297LI      Li 3357   2.215   2.318   0.318
  298LI      Li 3358   0.771   2.848   3.078
  299LI      Li 3359   1.049   0.863   1.845
  300LI      Li 3360   1.753   1.878   1.470
   3.72000   3.72000   3.72000
