; ITP file created by ByteFF-ML, 2026-09-16 23:16:09.264273

[ moleculetype ]
;name             nrexcl
 TfN                   3

[ atoms ]
;       nr            type      resi   res      atom      cgnr      charge          mass ; qtot
         1            n0bf         1   UNL        n0         1    -0.14840       14.0070 ; qtot   -0.148
         2            c1bf         1   UNL        c1         2     0.15736       12.0110 ; qtot    0.009
         3            n2bf         1   UNL        n2         3    -0.82848       14.0070 ; qtot   -0.820
         4            s3bf         1   UNL        s3         4     0.92447       32.0670 ; qtot    0.105
         5            o4bf         1   UNL        o4         5    -0.51634       15.9990 ; qtot   -0.411
         6            o5bf         1   UNL        o5         6    -0.51634       15.9990 ; qtot   -0.928
         7            c6bf         1   UNL        c6         7     0.25500       12.0110 ; qtot   -0.673
         8            f7bf         1   UNL        f7         8    -0.10909       18.9980 ; qtot   -0.782
         9            f8bf         1   UNL        f8         9    -0.10909       18.9980 ; qtot   -0.891
        10            f9bf         1   UNL        f9        10    -0.10909       18.9980 ; qtot   -1.000

[ bonds ]
;       ai        aj funct               r               k
         1         2     1        0.114280  1024774.371875
         2         3     1        0.120520   565393.848828
         3         4     1        0.155552   197348.393530
         4         5     1        0.147242   466107.559473
         4         6     1        0.147242   466107.559473
         4         7     1        0.191624   115527.954761
         7         8     1        0.139875   243568.633447
         7         9     1        0.139875   243568.633447
         7        10     1        0.139875   243568.633447

[ angles ]
;       ai        aj        ak funct           theta             cth
         1         2         3     1      174.685822      148.551121
         2         3         4     1      127.653725      355.697586
         3         4         5     1      112.531609      543.070125
         3         4         6     1      112.531609      543.070125
         3         4         7     1      101.805267      289.985688
         4         7         8     1      111.547775      408.010419
         4         7         9     1      111.547775      408.010419
         4         7        10     1      111.547775      408.010419
         5         4         6     1      120.349892      738.670337
         5         4         7     1      103.514870      329.217328
         6         4         7     1      103.514870      329.217328
         8         7         9     1      108.731689      724.194755
         8         7        10     1      108.731689      724.194435
         9         7        10     1      108.731689      724.194435

[ dihedrals ] ; propers for gromacs 4.5 or higher, use funct 9
;       ai        aj        ak        al funct           phase               k        pn
         1         2         3         4     9        0.000000       -0.000000         1
         1         2         3         4     9      180.000000        0.000000         2
         1         2         3         4     9        0.000000       -0.000000         3
         1         2         3         4     9      180.000000        0.000000         4
         2         3         4         5     9        0.000000        2.443611         1
         2         3         4         5     9      180.000000        2.078667         2
         2         3         4         5     9        0.000000       -0.663480         3
         2         3         4         5     9      180.000000       -0.445149         4
         2         3         4         6     9        0.000000        2.443611         1
         2         3         4         6     9      180.000000        2.078667         2
         2         3         4         6     9        0.000000       -0.663480         3
         2         3         4         6     9      180.000000       -0.445149         4
         2         3         4         7     9        0.000000        4.432200         1
         2         3         4         7     9      180.000000       -0.989234         2
         2         3         4         7     9        0.000000       -1.023259         3
         2         3         4         7     9      180.000000       -0.076299         4
         3         4         7         8     9        0.000000        3.541310         1
         3         4         7         8     9      180.000000        3.917950         2
         3         4         7         8     9        0.000000        0.264454         3
         3         4         7         8     9      180.000000        0.104147         4
         3         4         7         9     9        0.000000        3.541310         1
         3         4         7         9     9      180.000000        3.917950         2
         3         4         7         9     9        0.000000        0.264454         3
         3         4         7         9     9      180.000000        0.104147         4
         3         4         7        10     9        0.000000        3.541310         1
         3         4         7        10     9      180.000000        3.917950         2
         3         4         7        10     9        0.000000        0.264454         3
         3         4         7        10     9      180.000000        0.104147         4
         5         4         7         8     9        0.000000        4.474119         1
         5         4         7         8     9      180.000000        2.306829         2
         5         4         7         8     9        0.000000        0.701754         3
         5         4         7         8     9      180.000000        0.205376         4
         5         4         7         9     9        0.000000        4.474119         1
         5         4         7         9     9      180.000000        2.306829         2
         5         4         7         9     9        0.000000        0.701754         3
         5         4         7         9     9      180.000000        0.205376         4
         5         4         7        10     9        0.000000        4.474119         1
         5         4         7        10     9      180.000000        2.306829         2
         5         4         7        10     9        0.000000        0.701754         3
         5         4         7        10     9      180.000000        0.205376         4
         6         4         7         8     9        0.000000        4.474119         1
         6         4         7         8     9      180.000000        2.306829         2
         6         4         7         8     9        0.000000        0.701754         3
         6         4         7         8     9      180.000000        0.205376         4
         6         4         7         9     9        0.000000        4.474119         1
         6         4         7         9     9      180.000000        2.306829         2
         6         4         7         9     9        0.000000        0.701754         3
         6         4         7         9     9      180.000000        0.205376         4
         6         4         7        10     9        0.000000        4.474120         1
         6         4         7        10     9      180.000000        2.306828         2
         6         4         7        10     9        0.000000        0.701754         3
         6         4         7        10     9      180.000000        0.205375         4

[ pairs ]
;       ai        aj funct
         1         4     1
         2         5     1
         2         6     1
         2         7     1
         3         8     1
         3         9     1
         3        10     1
         5         8     1
         5         9     1
         5        10     1
         6         8     1
         6         9     1
         6        10     1
