; ITP file created by ByteFF-ML, 2026-09-15 19:47:54.549519

[ moleculetype ]
;name             nrexcl
 EC                    3

[ atoms ]
;       nr            type      resi   res      atom      cgnr      charge          mass ; qtot
         1            o0bf         1   UNL        o0         1    -0.57356       15.9990 ; qtot   -0.574
         2            c1bf         1   UNL        c1         2     0.88286       12.0110 ; qtot    0.309
         3            o2bf         1   UNL        o2         3    -0.39440       15.9990 ; qtot   -0.085
         4            c3bf         1   UNL        c3         4     0.06723       12.0110 ; qtot   -0.018
         5            c4bf         1   UNL        c4         5     0.06723       12.0110 ; qtot    0.049
         6            o5bf         1   UNL        o5         6    -0.39440       15.9990 ; qtot   -0.345
         7            h6bf         1   UNL        h6         7     0.08626        1.0080 ; qtot   -0.259
         8            h7bf         1   UNL        h7         8     0.08626        1.0080 ; qtot   -0.173
         9            h8bf         1   UNL        h8         9     0.08626        1.0080 ; qtot   -0.086
        10            h9bf         1   UNL        h9        10     0.08626        1.0080 ; qtot    0.000

[ bonds ]
;       ai        aj funct               r               k
         1         2     1        0.119889   747916.916113
         2         3     1        0.136185   209926.901050
         2         6     1        0.136185   209926.875513
         3         4     1        0.144261   169588.138330
         4         5     1        0.152921   173060.393555
         4         7     1        0.109574   308876.751758
         4         8     1        0.109574   308876.751758
         5         6     1        0.144261   169588.112793
         5         9     1        0.109574   308876.802832
         5        10     1        0.109574   308876.751758

[ angles ]
;       ai        aj        ak funct           theta             cth
         1         2         3     1      125.277679      537.176926
         1         2         6     1      125.277664      537.177054
         2         3         4     1      109.314606      539.843192
         2         6         5     1      109.314590      539.843320
         3         2         6     1      107.518005      333.192817
         3         4         5     1      102.734093      376.576535
         3         4         7     1      108.414055      485.553277
         3         4         8     1      108.414055      485.553277
         4         5         6     1      102.734070      376.576344
         4         5         9     1      113.141449      427.891888
         4         5        10     1      113.141426      427.892016
         5         4         7     1      113.141434      427.892048
         5         4         8     1      113.141434      427.892048
         6         5         9     1      108.414070      485.553372
         6         5        10     1      108.414055      485.553372
         7         4         8     1      109.787552      334.586792
         9         5        10     1      109.787544      334.586920

[ dihedrals ] ; propers for gromacs 4.5 or higher, use funct 9
;       ai        aj        ak        al funct           phase               k        pn
         1         2         3         4     9        0.000000       10.574508         1
         1         2         3         4     9      180.000000        7.638784         2
         1         2         3         4     9        0.000000        1.362792         3
         1         2         3         4     9      180.000000       -0.884414         4
         1         2         6         5     9        0.000000       10.574503         1
         1         2         6         5     9      180.000000        7.638782         2
         1         2         6         5     9        0.000000        1.362792         3
         1         2         6         5     9      180.000000       -0.884414         4
         2         3         4         5     9        0.000000      -16.055440         1
         2         3         4         5     9      180.000000       12.455031         2
         2         3         4         5     9        0.000000       -0.194898         3
         2         3         4         5     9      180.000000       -1.607755         4
         2         3         4         7     9        0.000000        3.898707         1
         2         3         4         7     9      180.000000        3.967358         2
         2         3         4         7     9        0.000000        0.454749         3
         2         3         4         7     9      180.000000       -0.011178         4
         2         3         4         8     9        0.000000        3.898707         1
         2         3         4         8     9      180.000000        3.967358         2
         2         3         4         8     9        0.000000        0.454749         3
         2         3         4         8     9      180.000000       -0.011178         4
         2         6         5         4     9        0.000000      -16.055458         1
         2         6         5         4     9      180.000000       12.455044         2
         2         6         5         4     9        0.000000       -0.194899         3
         2         6         5         4     9      180.000000       -1.607758         4
         2         6         5         9     9        0.000000        3.898715         1
         2         6         5         9     9      180.000000        3.967360         2
         2         6         5         9     9        0.000000        0.454750         3
         2         6         5         9     9      180.000000       -0.011178         4
         2         6         5        10     9        0.000000        3.898716         1
         2         6         5        10     9      180.000000        3.967360         2
         2         6         5        10     9        0.000000        0.454748         3
         2         6         5        10     9      180.000000       -0.011178         4
         3         2         6         5     9        0.000000       -9.040063         1
         3         2         6         5     9      180.000000       17.950471         2
         3         2         6         5     9        0.000000        0.987844         3
         3         2         6         5     9      180.000000       -2.866938         4
         3         4         5         6     9        0.000000      -10.483040         1
         3         4         5         6     9      180.000000       13.904892         2
         3         4         5         6     9        0.000000        0.972905         3
         3         4         5         6     9      180.000000       -2.307432         4
         3         4         5         9     9        0.000000       -2.358296         1
         3         4         5         9     9      180.000000        7.091966         2
         3         4         5         9     9        0.000000        0.722838         3
         3         4         5         9     9      180.000000       -0.159847         4
         3         4         5        10     9        0.000000       -2.358295         1
         3         4         5        10     9      180.000000        7.091967         2
         3         4         5        10     9        0.000000        0.722838         3
         3         4         5        10     9      180.000000       -0.159847         4
         4         3         2         6     9        0.000000       -9.040059         1
         4         3         2         6     9      180.000000       17.950463         2
         4         3         2         6     9        0.000000        0.987843         3
         4         3         2         6     9      180.000000       -2.866937         4
         6         5         4         7     9        0.000000       -2.358294         1
         6         5         4         7     9      180.000000        7.091966         2
         6         5         4         7     9        0.000000        0.722838         3
         6         5         4         7     9      180.000000       -0.159847         4
         6         5         4         8     9        0.000000       -2.358294         1
         6         5         4         8     9      180.000000        7.091966         2
         6         5         4         8     9        0.000000        0.722838         3
         6         5         4         8     9      180.000000       -0.159847         4
         7         4         5         9     9        0.000000       -6.124346         1
         7         4         5         9     9      180.000000        3.674177         2
         7         4         5         9     9        0.000000        0.676469         3
         7         4         5         9     9      180.000000        0.020086         4
         7         4         5        10     9        0.000000       -6.124343         1
         7         4         5        10     9      180.000000        3.674178         2
         7         4         5        10     9        0.000000        0.676468         3
         7         4         5        10     9      180.000000        0.020085         4
         8         4         5         9     9        0.000000       -6.124346         1
         8         4         5         9     9      180.000000        3.674177         2
         8         4         5         9     9        0.000000        0.676469         3
         8         4         5         9     9      180.000000        0.020086         4
         8         4         5        10     9        0.000000       -6.124345         1
         8         4         5        10     9      180.000000        3.674178         2
         8         4         5        10     9        0.000000        0.676469         3
         8         4         5        10     9      180.000000        0.020086         4

[ dihedrals ] ; impropers
;       ai        aj        ak        al funct           phase               k        pn
         2         1         3         6     4      180.000000       54.195162         2
         2         3         6         1     4      180.000000       54.195162         2
         2         6         1         3     4      180.000000       54.195162         2

[ pairs ]
;       ai        aj funct
         1         4     1
         1         5     1
         2         7     1
         2         8     1
         2         9     1
         2        10     1
         3         9     1
         3        10     1
         6         7     1
         6         8     1
         7         9     1
         7        10     1
         8         9     1
         8        10     1
