; ITP file created by ByteFF-ML, 2026-09-15 19:47:54.602353

[ moleculetype ]
;name             nrexcl
 LI                    3

[ atoms ]
;       nr            type      resi   res      atom      cgnr      charge          mass ; qtot
         1           li0bf         1   UNL       li0         1     1.00000        6.9410 ; qtot    1.000
