A Gromacs structure file written by ASE
 1156
    1TFSI     O    1   2.340   2.311   2.248
    1TFSI     S    2   2.236   2.210   2.269
    1TFSI     O    3   2.245   2.100   2.173
    1TFSI     N    4   2.093   2.276   2.287
    1TFSI     S    5   1.973   2.171   2.292
    1TFSI     O    6   1.845   2.235   2.325
    1TFSI     O    7   1.997   2.050   2.370
    1TFSI     C    8   1.960   2.121   2.114
    1TFSI     F    9   2.016   2.212   2.029
    1TFSI     F   10   1.828   2.113   2.076
    1TFSI     F   11   2.012   1.998   2.087
    1TFSI     C   12   2.266   2.142   2.438
    1TFSI     F   13   2.188   2.199   2.533
    1TFSI     F   14   2.396   2.166   2.479
    1TFSI     F   15   2.251   2.006   2.447
    2TFSI     O   16   2.024   0.787   0.590
    2TFSI     S   17   2.132   0.859   0.660
    2TFSI     O   18   2.100   0.887   0.799
    2TFSI     N   19   2.186   0.981   0.575
    2TFSI     S   20   2.290   1.072   0.651
    2TFSI     O   21   2.350   1.174   0.564
    2TFSI     O   22   2.390   1.002   0.732
    2TFSI     C   23   2.180   1.166   0.767
    2TFSI     F   24   2.050   1.166   0.728
    2TFSI     F   25   2.216   1.298   0.773
    2TFSI     F   26   2.186   1.122   0.896
    2TFSI     C   27   2.277   0.744   0.656
    2TFSI     F   28   2.364   0.772   0.555
    2TFSI     F   29   2.237   0.614   0.635
    2TFSI     F   30   2.348   0.741   0.773
    3TFSI     O   31   2.001   0.429   2.577
    3TFSI     S   32   2.003   0.575   2.567
    3TFSI     O   33   1.900   0.639   2.649
    3TFSI     N   34   2.012   0.623   2.416
    3TFSI     S   35   1.996   0.780   2.396
    3TFSI     O   36   2.021   0.822   2.258
    3TFSI     O   37   2.066   0.864   2.494
    3TFSI     C   38   1.814   0.804   2.423
    3TFSI     F   39   1.743   0.688   2.406
    3TFSI     F   40   1.762   0.891   2.331
    3TFSI     F   41   1.782   0.856   2.544
    3TFSI     C   42   2.168   0.628   2.632
    3TFSI     F   43   2.259   0.649   2.534
    3TFSI     F   44   2.223   0.530   2.711
    3TFSI     F   45   2.163   0.739   2.710
    4TFSI     O   46   1.622   2.668   1.040
    4TFSI     S   47   1.582   2.530   1.014
    4TFSI     O   48   1.473   2.485   1.101
    4TFSI     N   49   1.707   2.432   1.004
    4TFSI     S   50   1.670   2.279   0.993
    4TFSI     O   51   1.787   2.194   0.967
    4TFSI     O   52   1.556   2.246   0.906
    4TFSI     C   53   1.619   2.240   1.167
    4TFSI     F   54   1.667   2.331   1.257
    4TFSI     F   55   1.669   2.120   1.207
    4TFSI     F   56   1.484   2.231   1.185
    4TFSI     C   57   1.520   2.528   0.840
    4TFSI     F   58   1.613   2.486   0.751
    4TFSI     F   59   1.485   2.654   0.799
    4TFSI     F   60   1.407   2.452   0.822
    5TFSI     O   61   1.881   2.394   0.853
    5TFSI     S   62   1.885   2.416   0.708
    5TFSI     O   63   1.811   2.535   0.668
    5TFSI     N   64   1.854   2.284   0.627
    5TFSI     S   65   1.839   2.305   0.470
    5TFSI     O   66   1.827   2.178   0.398
    5TFSI     O   67   1.936   2.396   0.408
    5TFSI     C   68   1.673   2.385   0.458
    5TFSI     F   69   1.596   2.363   0.569
    5TFSI     F   70   1.601   2.334   0.354
    5TFSI     F   71   1.677   2.519   0.436
    5TFSI     C   72   2.064   2.443   0.667
    5TFSI     F   73   2.125   2.331   0.622
    5TFSI     F   74   2.135   2.480   0.779
    5TFSI     F   75   2.085   2.543   0.576
    6TFSI     O   76   0.783   1.214   1.757
    6TFSI     S   77   0.823   1.074   1.741
    6TFSI     O   78   0.722   0.995   1.671
    6TFSI     N   79   0.879   1.012   1.876
    6TFSI     S   80   0.907   0.856   1.869
    6TFSI     O   81   0.973   0.806   1.991
    6TFSI     O   82   0.970   0.807   1.747
    6TFSI     C   83   0.735   0.786   1.875
    6TFSI     F   84   0.644   0.874   1.926
    6TFSI     F   85   0.729   0.677   1.958
    6TFSI     F   86   0.689   0.742   1.755
    6TFSI     C   87   0.976   1.078   1.637
    6TFSI     F   88   1.090   1.070   1.710
    6TFSI     F   89   0.985   1.196   1.567
    6TFSI     F   90   0.980   0.979   1.542
    7TFSI     O   91   2.008   2.078   1.747
    7TFSI     S   92   2.120   2.172   1.745
    7TFSI     O   93   2.214   2.147   1.635
    7TFSI     N   94   2.185   2.190   1.889
    7TFSI     S   95   2.317   2.277   1.891
    7TFSI     O   96   2.364   2.304   2.027
    7TFSI     O   97   2.317   2.397   1.807
    7TFSI     C   98   2.441   2.159   1.819
    7TFSI     F   99   2.400   2.029   1.827
    7TFSI     F  100   2.559   2.164   1.887
    7TFSI     F  101   2.474   2.185   1.689
    7TFSI     C  102   2.044   2.339   1.718
    7TFSI     F  103   2.027   2.409   1.833
    7TFSI     F  104   1.919   2.328   1.663
    7TFSI     F  105   2.115   2.418   1.632
    8TFSI     O  106   2.266   2.240   0.841
    8TFSI     S  107   2.253   2.146   0.953
    8TFSI     O  108   2.133   2.063   0.942
    8TFSI     N  109   2.277   2.216   1.093
    8TFSI     S  110   2.247   2.124   1.218
    8TFSI     O  111   2.286   2.188   1.344
    8TFSI     O  112   2.293   1.985   1.208
    8TFSI     C  113   2.062   2.121   1.219
    8TFSI     F  114   2.007   2.225   1.150
    8TFSI     F  115   2.014   2.134   1.347
    8TFSI     F  116   2.008   2.005   1.172
    8TFSI     C  117   2.401   2.035   0.941
    8TFSI     F  118   2.502   2.073   1.024
    8TFSI     F  119   2.455   2.038   0.815
    8TFSI     F  120   2.373   1.904   0.966
    9TFSI     O  121   1.675   1.737   0.664
    9TFSI     S  122   1.606   1.635   0.744
    9TFSI     O  123   1.628   1.651   0.887
    9TFSI     N  124   1.628   1.489   0.685
    9TFSI     S  125   1.570   1.373   0.776
    9TFSI     O  126   1.579   1.242   0.710
    9TFSI     O  127   1.439   1.397   0.836
    9TFSI     C  128   1.695   1.367   0.913
    9TFSI     F  129   1.814   1.425   0.878
    9TFSI     F  130   1.726   1.238   0.946
    9TFSI     F  131   1.652   1.424   1.029
    9TFSI     C  132   1.425   1.661   0.711
    9TFSI     F  133   1.376   1.577   0.615
    9TFSI     F  134   1.401   1.787   0.663
    9TFSI     F  135   1.347   1.648   0.822
   10TFSI     O  136   0.641   1.630   1.072
   10TFSI     S  137   0.762   1.660   0.994
   10TFSI     O  138   0.774   1.576   0.875
   10TFSI     N  139   0.890   1.671   1.086
   10TFSI     S  140   1.027   1.686   1.006
   10TFSI     O  141   1.141   1.712   1.095
   10TFSI     O  142   1.024   1.776   0.891
   10TFSI     C  143   1.052   1.514   0.942
   10TFSI     F  144   0.981   1.421   1.011
   10TFSI     F  145   1.183   1.476   0.954
   10TFSI     F  146   1.023   1.500   0.810
   10TFSI     C  147   0.741   1.836   0.939
   10TFSI     F  148   0.807   1.924   1.019
   10TFSI     F  149   0.610   1.874   0.943
   10TFSI     F  150   0.781   1.858   0.811
   11TFSI     O  151   2.138   0.322   0.271
   11TFSI     S  152   2.177   0.310   0.412
   11TFSI     O  153   2.188   0.171   0.456
   11TFSI     N  154   2.092   0.406   0.506
   11TFSI     S  155   2.117   0.385   0.661
   11TFSI     O  156   2.049   0.486   0.743
   11TFSI     O  157   2.257   0.365   0.701
   11TFSI     C  158   2.027   0.227   0.693
   11TFSI     F  159   1.934   0.199   0.597
   11TFSI     F  160   1.957   0.234   0.810
   11TFSI     F  161   2.108   0.118   0.706
   11TFSI     C  162   2.345   0.388   0.423
   11TFSI     F  163   2.341   0.517   0.466
   11TFSI     F  164   2.405   0.393   0.300
   11TFSI     F  165   2.432   0.320   0.503
   12TFSI     O  166   2.036   0.613   0.456
   12TFSI     S  167   2.084   0.675   0.332
   12TFSI     O  168   2.168   0.585   0.253
   12TFSI     N  169   2.139   0.821   0.355
   12TFSI     S  170   2.208   0.887   0.228
   12TFSI     O  171   2.243   1.027   0.250
   12TFSI     O  172   2.140   0.865   0.100
   12TFSI     C  173   2.369   0.795   0.221
   12TFSI     F  174   2.402   0.738   0.340
   12TFSI     F  175   2.472   0.881   0.192
   12TFSI     F  176   2.374   0.699   0.125
   12TFSI     C  177   1.931   0.710   0.233
   12TFSI     F  178   1.888   0.838   0.245
   12TFSI     F  179   1.825   0.632   0.276
   12TFSI     F  180   1.944   0.682   0.100
   13TFSI     O  181   1.547   0.820   1.871
   13TFSI     S  182   1.536   0.964   1.899
   13TFSI     O  183   1.663   1.034   1.884
   13TFSI     N  184   1.455   0.992   2.033
   13TFSI     S  185   1.455   1.144   2.078
   13TFSI     O  186   1.366   1.168   2.193
   13TFSI     O  187   1.436   1.243   1.971
   13TFSI     C  188   1.627   1.165   2.143
   13TFSI     F  189   1.686   1.046   2.176
   13TFSI     F  190   1.627   1.237   2.259
   13TFSI     F  191   1.710   1.232   2.059
   13TFSI     C  192   1.418   1.030   1.772
   13TFSI     F  193   1.291   1.041   1.818
   13TFSI     F  194   1.410   0.946   1.663
   13TFSI     F  195   1.455   1.151   1.720
   14TFSI     O  196   0.762   1.613   1.255
   14TFSI     S  197   0.728   1.710   1.359
   14TFSI     O  198   0.780   1.673   1.490
   14TFSI     N  199   0.574   1.751   1.354
   14TFSI     S  200   0.527   1.842   1.475
   14TFSI     O  201   0.389   1.890   1.458
   14TFSI     O  202   0.619   1.949   1.515
   14TFSI     C  203   0.519   1.720   1.614
   14TFSI     F  204   0.511   1.591   1.570
   14TFSI     F  205   0.407   1.740   1.690
   14TFSI     F  206   0.624   1.729   1.701
   14TFSI     C  207   0.809   1.868   1.308
   14TFSI     F  208   0.725   1.953   1.243
   14TFSI     F  209   0.911   1.845   1.219
   14TFSI     F  210   0.866   1.937   1.411
   15TFSI     O  211   1.134   2.142   1.128
   15TFSI     S  212   1.219   2.057   1.045
   15TFSI     O  213   1.167   1.921   1.032
   15TFSI     N  214   1.372   2.070   1.084
   15TFSI     S  215   1.468   1.967   1.010
   15TFSI     O  216   1.610   1.994   1.037
   15TFSI     O  217   1.441   1.945   0.868
   15TFSI     C  218   1.429   1.809   1.099
   15TFSI     F  219   1.372   1.830   1.221
   15TFSI     F  220   1.544   1.738   1.124
   15TFSI     F  221   1.350   1.724   1.028
   15TFSI     C  222   1.218   2.134   0.877
   15TFSI     F  223   1.326   2.213   0.854
   15TFSI     F  224   1.109   2.217   0.861
   15TFSI     F  225   1.210   2.044   0.775
   16TFSI     O  226   1.632   0.206   1.457
   16TFSI     S  227   1.725   0.311   1.500
   16TFSI     O  228   1.662   0.407   1.591
   16TFSI     N  229   1.807   0.372   1.379
   16TFSI     S  230   1.896   0.497   1.417
   16TFSI     O  231   1.982   0.540   1.306
   16TFSI     O  232   1.969   0.488   1.544
   16TFSI     C  233   1.769   0.631   1.435
   16TFSI     F  234   1.652   0.600   1.371
   16TFSI     F  235   1.812   0.747   1.378
   16TFSI     F  236   1.740   0.663   1.564
   16TFSI     C  237   1.858   0.222   1.594
   16TFSI     F  238   1.968   0.198   1.518
   16TFSI     F  239   1.815   0.099   1.636
   16TFSI     F  240   1.898   0.287   1.707
   17TFSI     O  241   1.352   1.692   2.375
   17TFSI     S  242   1.271   1.764   2.474
   17TFSI     O  243   1.128   1.757   2.446
   17TFSI     N  244   1.330   1.909   2.503
   17TFSI     S  245   1.238   1.998   2.596
   17TFSI     O  246   1.303   2.124   2.634
   17TFSI     O  247   1.177   1.931   2.711
   17TFSI     C  248   1.102   2.046   2.480
   17TFSI     F  249   1.137   2.032   2.349
   17TFSI     F  250   1.068   2.178   2.495
   17TFSI     F  251   0.986   1.977   2.500
   17TFSI     C  252   1.304   1.678   2.635
   17TFSI     F  253   1.398   1.740   2.710
   17TFSI     F  254   1.351   1.551   2.615
   17TFSI     F  255   1.192   1.663   2.712
   18TFSI     O  256   0.802   1.456   2.193
   18TFSI     S  257   0.898   1.433   2.085
   18TFSI     O  258   0.859   1.323   1.997
   18TFSI     N  259   1.048   1.431   2.138
   18TFSI     S  260   1.155   1.389   2.029
   18TFSI     O  261   1.293   1.404   2.078
   18TFSI     O  262   1.137   1.447   1.895
   18TFSI     C  263   1.127   1.207   2.016
   18TFSI     F  264   1.062   1.155   2.124
   18TFSI     F  265   1.246   1.139   2.009
   18TFSI     F  266   1.058   1.170   1.904
   18TFSI     C  267   0.898   1.590   1.985
   18TFSI     F  268   1.000   1.674   2.018
   18TFSI     F  269   0.783   1.662   2.007
   18TFSI     F  270   0.903   1.568   1.850
   19TFSI     O  271   0.858   1.311   0.852
   19TFSI     S  272   0.848   1.335   0.708
   19TFSI     O  273   0.811   1.473   0.677
   19TFSI     N  274   0.763   1.222   0.635
   19TFSI     S  275   0.733   1.251   0.482
   19TFSI     O  276   0.669   1.138   0.415
   19TFSI     O  277   0.844   1.307   0.404
   19TFSI     C  278   0.602   1.382   0.494
   19TFSI     F  279   0.540   1.383   0.615
   19TFSI     F  280   0.503   1.360   0.403
   19TFSI     F  281   0.647   1.508   0.467
   19TFSI     C  282   1.017   1.303   0.640
   19TFSI     F  283   1.031   1.179   0.588
   19TFSI     F  284   1.112   1.312   0.739
   19TFSI     F  285   1.056   1.393   0.545
   20TFSI     O  286   0.546   1.071   2.056
   20TFSI     S  287   0.403   1.091   2.031
   20TFSI     O  288   0.378   1.169   1.910
   20TFSI     N  289   0.325   1.136   2.161
   20TFSI     S  290   0.174   1.176   2.136
   20TFSI     O  291   0.102   1.202   2.261
   20TFSI     O  292   0.099   1.090   2.045
   20TFSI     C  293   0.191   1.341   2.055
   20TFSI     F  294   0.313   1.399   2.078
   20TFSI     F  295   0.099   1.430   2.103
   20TFSI     F  296   0.171   1.339   1.920
   20TFSI     C  297   0.334   0.921   2.004
   20TFSI     F  298   0.276   0.869   2.115
   20TFSI     F  299   0.433   0.832   1.970
   20TFSI     F  300   0.243   0.914   1.902
   21TFSI     O  301   1.473   2.062   1.607
   21TFSI     S  302   1.590   1.976   1.584
   21TFSI     O  303   1.610   1.945   1.443
   21TFSI     N  304   1.593   1.852   1.683
   21TFSI     S  305   1.706   1.746   1.652
   21TFSI     O  306   1.715   1.642   1.756
   21TFSI     O  307   1.837   1.801   1.616
   21TFSI     C  308   1.638   1.661   1.503
   21TFSI     F  309   1.503   1.677   1.490
   21TFSI     F  310   1.657   1.525   1.511
   21TFSI     F  311   1.697   1.698   1.386
   21TFSI     C  312   1.736   2.074   1.643
   21TFSI     F  313   1.774   2.041   1.769
   21TFSI     F  314   1.707   2.208   1.648
   21TFSI     F  315   1.845   2.063   1.562
   22TFSI     O  316   2.031   1.337   2.215
   22TFSI     S  317   2.053   1.476   2.173
   22TFSI     O  318   2.167   1.491   2.084
   22TFSI     N  319   2.047   1.577   2.296
   22TFSI     S  320   2.086   1.726   2.261
   22TFSI     O  321   2.064   1.818   2.373
   22TFSI     O  322   2.034   1.778   2.134
   22TFSI     C  323   2.271   1.713   2.244
   22TFSI     F  324   2.321   1.602   2.306
   22TFSI     F  325   2.333   1.819   2.303
   22TFSI     F  326   2.315   1.713   2.115
   22TFSI     C  327   1.900   1.524   2.080
   22TFSI     F  328   1.811   1.592   2.155
   22TFSI     F  329   1.833   1.413   2.035
   22TFSI     F  330   1.926   1.598   1.968
   23TFSI     O  331   1.614   1.375   0.101
   23TFSI     S  332   1.729   1.336   0.184
   23TFSI     O  333   1.772   1.443   0.274
   23TFSI     N  334   1.843   1.266   0.098
   23TFSI     S  335   1.977   1.238   0.178
   23TFSI     O  336   2.073   1.160   0.100
   23TFSI     O  337   1.961   1.187   0.315
   23TFSI     C  338   2.050   1.408   0.190
   23TFSI     F  339   1.999   1.494   0.097
   23TFSI     F  340   2.185   1.405   0.167
   23TFSI     F  341   2.036   1.465   0.313
   23TFSI     C  342   1.669   1.194   0.287
   23TFSI     F  343   1.703   1.073   0.236
   23TFSI     F  344   1.532   1.193   0.295
   23TFSI     F  345   1.713   1.199   0.417
   24TFSI     O  346   1.702   0.749   0.658
   24TFSI     S  347   1.701   0.792   0.798
   24TFSI     O  348   1.834   0.827   0.848
   24TFSI     N  349   1.616   0.693   0.890
   24TFSI     S  350   1.625   0.724   1.045
   24TFSI     O  351   1.533   0.641   1.123
   24TFSI     O  352   1.620   0.865   1.083
   24TFSI     C  353   1.795   0.661   1.086
   24TFSI     F  354   1.842   0.573   0.993
   24TFSI     F  355   1.795   0.593   1.204
   24TFSI     F  356   1.888   0.760   1.102
   24TFSI     C  357   1.596   0.944   0.803
   24TFSI     F  358   1.468   0.920   0.840
   24TFSI     F  359   1.587   1.001   0.678
   24TFSI     F  360   1.645   1.043   0.884
   25TFSI     O  361   2.620   0.423   1.374
   25TFSI     S  362   2.491   0.475   1.326
   25TFSI     O  363   2.378   0.423   1.401
   25TFSI     N  364   2.480   0.467   1.168
   25TFSI     S  365   2.337   0.505   1.110
   25TFSI     O  366   2.336   0.513   0.964
   25TFSI     O  367   2.271   0.621   1.173
   25TFSI     C  368   2.238   0.355   1.153
   25TFSI     F  369   2.316   0.245   1.177
   25TFSI     F  370   2.156   0.319   1.050
   25TFSI     F  371   2.155   0.372   1.260
   25TFSI     C  372   2.499   0.658   1.353
   25TFSI     F  373   2.534   0.727   1.241
   25TFSI     F  374   2.593   0.690   1.447
   25TFSI     F  375   2.382   0.711   1.400
   26TFSI     O  376   0.581   0.411   0.734
   26TFSI     S  377   0.682   0.307   0.755
   26TFSI     O  378   0.635   0.200   0.842
   26TFSI     N  379   0.824   0.369   0.790
   26TFSI     S  380   0.933   0.262   0.831
   26TFSI     O  381   1.067   0.321   0.846
   26TFSI     O  382   0.936   0.138   0.751
   26TFSI     C  383   0.879   0.216   1.002
   26TFSI     F  384   0.798   0.311   1.058
   26TFSI     F  385   0.987   0.206   1.086
   26TFSI     F  386   0.816   0.096   1.010
   26TFSI     C  387   0.714   0.235   0.587
   26TFSI     F  388   0.823   0.287   0.527
   26TFSI     F  389   0.609   0.261   0.502
   26TFSI     F  390   0.727   0.099   0.588
   27TFSI     O  391   0.606   1.879   1.968
   27TFSI     S  392   0.480   1.946   2.000
   27TFSI     O  393   0.366   1.855   2.001
   27TFSI     N  394   0.461   2.081   1.918
   27TFSI     S  395   0.320   2.149   1.935
   27TFSI     O  396   0.313   2.280   1.870
   27TFSI     O  397   0.265   2.151   2.071
   27TFSI     C  398   0.211   2.038   1.834
   27TFSI     F  399   0.282   1.964   1.743
   27TFSI     F  400   0.123   2.111   1.759
   27TFSI     F  401   0.135   1.953   1.907
   27TFSI     C  402   0.502   2.012   2.172
   27TFSI     F  403   0.538   2.143   2.175
   27TFSI     F  404   0.603   1.946   2.238
   27TFSI     F  405   0.392   1.997   2.251
   28TFSI     O  406   1.973   1.225   1.791
   28TFSI     S  407   1.995   1.081   1.811
   28TFSI     O  408   2.008   1.008   1.685
   28TFSI     N  409   1.893   1.021   1.917
   28TFSI     S  410   1.899   0.863   1.931
   28TFSI     O  411   1.816   0.813   2.040
   28TFSI     O  412   2.033   0.803   1.930
   28TFSI     C  413   1.814   0.808   1.775
   28TFSI     F  414   1.736   0.906   1.721
   28TFSI     F  415   1.729   0.704   1.800
   28TFSI     F  416   1.899   0.763   1.679
   28TFSI     C  417   2.155   1.068   1.903
   28TFSI     F  418   2.139   1.054   2.036
   28TFSI     F  419   2.231   1.181   1.887
   28TFSI     F  420   2.235   0.965   1.859
   29TFSI     O  421   1.229   0.302   2.348
   29TFSI     S  422   1.362   0.352   2.312
   29TFSI     O  423   1.387   0.487   2.364
   29TFSI     N  424   1.395   0.330   2.158
   29TFSI     S  425   1.529   0.397   2.109
   29TFSI     O  426   1.563   0.360   1.972
   29TFSI     O  427   1.644   0.387   2.200
   29TFSI     C  428   1.480   0.576   2.102
   29TFSI     F  429   1.345   0.594   2.095
   29TFSI     F  430   1.530   0.636   1.989
   29TFSI     F  431   1.528   0.651   2.205
   29TFSI     C  432   1.482   0.237   2.392
   29TFSI     F  433   1.529   0.141   2.308
   29TFSI     F  434   1.423   0.168   2.496
   29TFSI     F  435   1.590   0.300   2.448
   30TFSI     O  436   2.353   0.832   2.647
   30TFSI     S  437   2.459   0.762   2.573
   30TFSI     O  438   2.427   0.748   2.431
   30TFSI     N  439   2.508   0.632   2.647
   30TFSI     S  440   2.610   0.543   2.564
   30TFSI     O  441   2.665   0.432   2.642
   30TFSI     O  442   2.713   0.616   2.489
   30TFSI     C  443   2.497   0.464   2.439
   30TFSI     F  444   2.367   0.465   2.478
   30TFSI     F  445   2.529   0.332   2.422
   30TFSI     F  446   2.505   0.519   2.315
   30TFSI     C  447   2.608   0.871   2.587
   30TFSI     F  448   2.693   0.832   2.685
   30TFSI     F  449   2.572   1.000   2.619
   30TFSI     F  450   2.679   0.882   2.471
   31TFSI     O  451   1.228   0.359   1.946
   31TFSI     S  452   1.144   0.447   2.027
   31TFSI     O  453   1.189   0.456   2.166
   31TFSI     N  454   0.990   0.417   2.006
   31TFSI     S  455   0.894   0.496   2.104
   31TFSI     O  456   0.752   0.478   2.070
   31TFSI     O  457   0.928   0.637   2.128
   31TFSI     C  458   0.918   0.405   2.263
   31TFSI     F  459   0.969   0.280   2.245
   31TFSI     F  460   0.799   0.386   2.328
   31TFSI     F  461   0.998   0.470   2.353
   31TFSI     C  462   1.159   0.615   1.950
   31TFSI     F  463   1.057   0.644   1.866
   31TFSI     F  464   1.273   0.624   1.874
   31TFSI     F  465   1.169   0.716   2.042
   32TFSI     O  466   2.557   2.026   0.456
   32TFSI     S  467   2.494   2.157   0.476
   32TFSI     O  468   2.353   2.146   0.512
   32TFSI     N  469   2.528   2.258   0.359
   32TFSI     S  470   2.449   2.395   0.366
   32TFSI     O  471   2.496   2.491   0.265
   32TFSI     O  472   2.435   2.455   0.499
   32TFSI     C  473   2.280   2.344   0.310
   32TFSI     F  474   2.281   2.226   0.240
   32TFSI     F  475   2.227   2.436   0.224
   32TFSI     F  476   2.190   2.333   0.411
   32TFSI     C  477   2.584   2.233   0.618
   32TFSI     F  478   2.681   2.320   0.579
   32TFSI     F  479   2.649   2.138   0.693
   32TFSI     F  480   2.502   2.299   0.706
   33TFSI     O  481   0.997   0.717   0.595
   33TFSI     S  482   1.026   0.821   0.495
   33TFSI     O  483   0.966   0.950   0.529
   33TFSI     N  484   1.002   0.770   0.347
   33TFSI     S  485   1.015   0.882   0.236
   33TFSI     O  486   1.008   0.828   0.100
   33TFSI     O  487   1.126   0.977   0.253
   33TFSI     C  488   0.858   0.977   0.259
   33TFSI     F  489   0.762   0.905   0.325
   33TFSI     F  490   0.802   1.009   0.139
   33TFSI     F  491   0.873   1.096   0.324
   33TFSI     C  492   1.210   0.841   0.498
   33TFSI     F  493   1.272   0.771   0.399
   33TFSI     F  494   1.264   0.793   0.615
   33TFSI     F  495   1.252   0.971   0.489
   34TFSI     O  496   2.635   1.635   1.387
   34TFSI     S  497   2.541   1.583   1.487
   34TFSI     O  498   2.565   1.637   1.621
   34TFSI     N  499   2.524   1.426   1.477
   34TFSI     S  500   2.437   1.361   1.592
   34TFSI     O  501   2.412   1.219   1.570
   34TFSI     O  502   2.317   1.435   1.631
   34TFSI     C  503   2.555   1.368   1.736
   34TFSI     F  504   2.685   1.381   1.697
   34TFSI     F  505   2.550   1.252   1.808
   34TFSI     F  506   2.527   1.467   1.825
   34TFSI     C  507   2.374   1.641   1.431
   34TFSI     F  508   2.306   1.547   1.361
   34TFSI     F  509   2.385   1.749   1.347
   34TFSI     F  510   2.294   1.684   1.534
   35EMIM     C  511   2.238   0.696   2.250
   35EMIM     C  512   2.271   0.760   2.117
   35EMIM     N  513   2.395   0.839   2.126
   35EMIM     C  514   2.523   0.793   2.099
   35EMIM     C  515   2.607   0.899   2.122
   35EMIM     N  516   2.529   1.005   2.161
   35EMIM     C  517   2.577   1.138   2.196
   35EMIM     C  518   2.401   0.967   2.165
   35EMIM     H  519   2.145   0.638   2.241
   35EMIM     H  520   2.318   0.629   2.281
   35EMIM     H  521   2.224   0.771   2.327
   35EMIM     H  522   2.191   0.827   2.085
   35EMIM     H  523   2.285   0.684   2.039
   35EMIM     H  524   2.538   0.692   2.067
   35EMIM     H  525   2.714   0.912   2.113
   35EMIM     H  526   2.494   1.203   2.221
   35EMIM     H  527   2.644   1.130   2.283
   35EMIM     H  528   2.632   1.180   2.111
   35EMIM     H  529   2.316   1.030   2.192
   36EMIM     C  530   1.446   1.372   1.588
   36EMIM     C  531   1.440   1.299   1.455
   36EMIM     N  532   1.321   1.339   1.379
   36EMIM     C  533   1.314   1.441   1.285
   36EMIM     C  534   1.185   1.443   1.240
   36EMIM     N  535   1.117   1.343   1.307
   36EMIM     C  536   0.976   1.310   1.289
   36EMIM     C  537   1.200   1.281   1.391
   36EMIM     H  538   1.535   1.341   1.644
   36EMIM     H  539   1.451   1.480   1.572
   36EMIM     H  540   1.358   1.350   1.649
   36EMIM     H  541   1.436   1.192   1.471
   36EMIM     H  542   1.529   1.321   1.395
   36EMIM     H  543   1.402   1.499   1.263
   36EMIM     H  544   1.133   1.504   1.167
   36EMIM     H  545   0.950   1.225   1.352
   36EMIM     H  546   0.916   1.397   1.318
   36EMIM     H  547   0.957   1.285   1.184
   36EMIM     H  548   1.175   1.198   1.457
   37EMIM     C  549   2.609   1.106   1.387
   37EMIM     C  550   2.506   1.132   1.280
   37EMIM     N  551   2.514   1.031   1.173
   37EMIM     C  552   2.442   0.912   1.167
   37EMIM     C  553   2.482   0.850   1.052
   37EMIM     N  554   2.575   0.931   0.991
   37EMIM     C  555   2.644   0.902   0.866
   37EMIM     C  556   2.595   1.040   1.066
   37EMIM     H  557   2.602   1.182   1.466
   37EMIM     H  558   2.594   1.008   1.432
   37EMIM     H  559   2.710   1.109   1.346
   37EMIM     H  560   2.521   1.230   1.235
   37EMIM     H  561   2.405   1.129   1.322
   37EMIM     H  562   2.372   0.888   1.245
   37EMIM     H  563   2.453   0.756   1.005
   37EMIM     H  564   2.710   0.985   0.840
   37EMIM     H  565   2.703   0.811   0.878
   37EMIM     H  566   2.570   0.888   0.787
   37EMIM     H  567   2.662   1.122   1.044
   38EMIM     C  568   2.241   1.789   1.831
   38EMIM     C  569   2.368   1.711   1.807
   38EMIM     N  570   2.424   1.659   1.932
   38EMIM     C  571   2.397   1.535   1.989
   38EMIM     C  572   2.469   1.529   2.105
   38EMIM     N  573   2.537   1.649   2.116
   38EMIM     C  574   2.626   1.685   2.226
   38EMIM     C  575   2.508   1.726   2.012
   38EMIM     H  576   2.201   1.828   1.737
   38EMIM     H  577   2.165   1.727   1.878
   38EMIM     H  578   2.260   1.875   1.897
   38EMIM     H  579   2.444   1.773   1.759
   38EMIM     H  580   2.348   1.626   1.740
   38EMIM     H  581   2.330   1.467   1.938
   38EMIM     H  582   2.480   1.453   2.181
   38EMIM     H  583   2.668   1.784   2.208
   38EMIM     H  584   2.568   1.687   2.319
   38EMIM     H  585   2.706   1.612   2.233
   38EMIM     H  586   2.547   1.826   1.993
   39EMIM     C  587   0.226   1.293   1.528
   39EMIM     C  588   0.232   1.250   1.673
   39EMIM     N  589   0.296   1.119   1.687
   39EMIM     C  590   0.432   1.097   1.709
   39EMIM     C  591   0.448   0.962   1.714
   39EMIM     N  592   0.323   0.905   1.696
   39EMIM     C  593   0.295   0.762   1.694
   39EMIM     C  594   0.233   1.002   1.678
   39EMIM     H  595   0.176   1.391   1.519
   39EMIM     H  596   0.326   1.301   1.486
   39EMIM     H  597   0.169   1.221   1.468
   39EMIM     H  598   0.132   1.243   1.715
   39EMIM     H  599   0.288   1.323   1.733
   39EMIM     H  600   0.499   1.181   1.719
   39EMIM     H  601   0.534   0.897   1.730
   39EMIM     H  602   0.188   0.746   1.679
   39EMIM     H  603   0.349   0.716   1.610
   39EMIM     H  604   0.326   0.717   1.788
   39EMIM     H  605   0.126   0.988   1.661
   40EMIM     C  606   1.547   1.699   0.193
   40EMIM     C  607   1.480   1.672   0.326
   40EMIM     N  608   1.399   1.549   0.319
   40EMIM     C  609   1.442   1.421   0.352
   40EMIM     C  610   1.336   1.338   0.331
   40EMIM     N  611   1.231   1.417   0.287
   40EMIM     C  612   1.098   1.369   0.252
   40EMIM     C  613   1.271   1.544   0.279
   40EMIM     H  614   1.606   1.791   0.198
   40EMIM     H  615   1.613   1.617   0.165
   40EMIM     H  616   1.473   1.712   0.113
   40EMIM     H  617   1.414   1.754   0.353
   40EMIM     H  618   1.555   1.660   0.405
   40EMIM     H  619   1.543   1.406   0.386
   40EMIM     H  620   1.321   1.231   0.343
   40EMIM     H  621   1.035   1.453   0.223
   40EMIM     H  622   1.106   1.299   0.168
   40EMIM     H  623   1.054   1.318   0.338
   40EMIM     H  624   1.211   1.629   0.248
   41EMIM     C  625   2.086   1.658   0.931
   41EMIM     C  626   2.083   1.809   0.940
   41EMIM     N  627   1.966   1.864   0.870
   41EMIM     C  628   1.842   1.891   0.928
   41EMIM     C  629   1.763   1.939   0.828
   41EMIM     N  630   1.840   1.941   0.712
   41EMIM     C  631   1.795   1.985   0.581
   41EMIM     C  632   1.962   1.894   0.740
   41EMIM     H  633   2.174   1.618   0.982
   41EMIM     H  634   1.997   1.615   0.977
   41EMIM     H  635   2.090   1.624   0.827
   41EMIM     H  636   2.172   1.852   0.894
   41EMIM     H  637   2.080   1.841   1.044
   41EMIM     H  638   1.827   1.873   1.033
   41EMIM     H  639   1.661   1.975   0.824
   41EMIM     H  640   1.876   1.977   0.509
   41EMIM     H  641   1.712   1.921   0.549
   41EMIM     H  642   1.761   2.088   0.587
   41EMIM     H  643   2.044   1.883   0.669
   42EMIM     C  644   1.604   0.446   0.700
   42EMIM     C  645   1.674   0.423   0.568
   42EMIM     N  646   1.601   0.486   0.457
   42EMIM     C  647   1.622   0.614   0.408
   42EMIM     C  648   1.532   0.631   0.307
   42EMIM     N  649   1.459   0.515   0.297
   42EMIM     C  650   1.351   0.490   0.201
   42EMIM     C  651   1.501   0.428   0.389
   42EMIM     H  652   1.659   0.398   0.781
   42EMIM     H  653   1.597   0.553   0.721
   42EMIM     H  654   1.503   0.405   0.699
   42EMIM     H  655   1.681   0.316   0.547
   42EMIM     H  656   1.776   0.463   0.570
   42EMIM     H  657   1.699   0.675   0.451
   42EMIM     H  658   1.511   0.713   0.239
   42EMIM     H  659   1.312   0.389   0.214
   42EMIM     H  660   1.271   0.562   0.220
   42EMIM     H  661   1.389   0.502   0.100
   42EMIM     H  662   1.462   0.328   0.406
   43EMIM     C  663   0.306   0.929   1.320
   43EMIM     C  664   0.405   0.970   1.428
   43EMIM     N  665   0.531   1.015   1.369
   43EMIM     C  666   0.564   1.147   1.337
   43EMIM     C  667   0.690   1.144   1.285
   43EMIM     N  668   0.731   1.012   1.286
   43EMIM     C  669   0.860   0.963   1.240
   43EMIM     C  670   0.634   0.936   1.337
   43EMIM     H  671   0.213   0.894   1.365
   43EMIM     H  672   0.284   1.013   1.254
   43EMIM     H  673   0.347   0.848   1.259
   43EMIM     H  674   0.427   0.885   1.493
   43EMIM     H  675   0.364   1.050   1.489
   43EMIM     H  676   0.492   1.225   1.356
   43EMIM     H  677   0.757   1.220   1.247
   43EMIM     H  678   0.867   0.855   1.255
   43EMIM     H  679   0.869   0.985   1.132
   43EMIM     H  680   0.940   1.013   1.294
   43EMIM     H  681   0.638   0.828   1.351
   44EMIM     C  682   0.585   2.631   1.316
   44EMIM     C  683   0.623   2.531   1.209
   44EMIM     N  684   0.524   2.423   1.200
   44EMIM     C  685   0.413   2.420   1.116
   44EMIM     C  686   0.348   2.303   1.141
   44EMIM     N  687   0.421   2.236   1.238
   44EMIM     C  688   0.387   2.106   1.295
   44EMIM     C  689   0.526   2.311   1.273
   44EMIM     H  690   0.660   2.710   1.322
   44EMIM     H  691   0.488   2.676   1.294
   44EMIM     H  692   0.579   2.583   1.414
   44EMIM     H  693   0.720   2.485   1.230
   44EMIM     H  694   0.630   2.580   1.111
   44EMIM     H  695   0.395   2.503   1.049
   44EMIM     H  696   0.259   2.257   1.101
   44EMIM     H  697   0.463   2.077   1.368
   44EMIM     H  698   0.290   2.114   1.345
   44EMIM     H  699   0.382   2.032   1.215
   44EMIM     H  700   0.601   2.285   1.347
   45EMIM     C  701   0.460   0.627   1.156
   45EMIM     C  702   0.515   0.656   1.018
   45EMIM     N  703   0.658   0.625   1.011
   45EMIM     C  704   0.714   0.504   0.972
   45EMIM     C  705   0.849   0.519   0.981
   45EMIM     N  706   0.873   0.648   1.025
   45EMIM     C  707   1.004   0.707   1.049
   45EMIM     C  708   0.756   0.711   1.044
   45EMIM     H  709   0.353   0.652   1.160
   45EMIM     H  710   0.473   0.522   1.181
   45EMIM     H  711   0.511   0.687   1.232
   45EMIM     H  712   0.502   0.761   0.993
   45EMIM     H  713   0.463   0.596   0.942
   45EMIM     H  714   0.650   0.423   0.942
   45EMIM     H  715   0.933   0.454   0.960
   45EMIM     H  716   0.993   0.811   1.081
   45EMIM     H  717   1.054   0.650   1.128
   45EMIM     H  718   1.063   0.703   0.957
   45EMIM     H  719   0.743   0.813   1.078
   46EMIM     C  720   1.382   2.096   2.000
   46EMIM     C  721   1.480   2.054   2.107
   46EMIM     N  722   1.529   1.917   2.083
   46EMIM     C  723   1.642   1.882   2.011
   46EMIM     C  724   1.649   1.746   2.014
   46EMIM     N  725   1.540   1.701   2.087
   46EMIM     C  726   1.508   1.562   2.114
   46EMIM     C  727   1.468   1.806   2.127
   46EMIM     H  728   1.345   2.198   2.019
   46EMIM     H  729   1.428   2.093   1.901
   46EMIM     H  730   1.295   2.029   1.998
   46EMIM     H  731   1.434   2.056   2.205
   46EMIM     H  732   1.566   2.121   2.109
   46EMIM     H  733   1.704   1.959   1.968
   46EMIM     H  734   1.719   1.674   1.973
   46EMIM     H  735   1.418   1.556   2.176
   46EMIM     H  736   1.490   1.510   2.019
   46EMIM     H  737   1.592   1.515   2.166
   46EMIM     H  738   1.377   1.802   2.186
   47EMIM     C  739   0.658   0.518   0.293
   47EMIM     C  740   0.700   0.663   0.294
   47EMIM     N  741   0.631   0.738   0.400
   47EMIM     C  742   0.676   0.758   0.530
   47EMIM     C  743   0.580   0.831   0.593
   47EMIM     N  744   0.479   0.854   0.502
   47EMIM     C  745   0.357   0.928   0.528
   47EMIM     C  746   0.511   0.796   0.386
   47EMIM     H  747   0.710   0.464   0.213
   47EMIM     H  748   0.681   0.470   0.388
   47EMIM     H  749   0.551   0.509   0.275
   47EMIM     H  750   0.678   0.711   0.199
   47EMIM     H  751   0.808   0.672   0.311
   47EMIM     H  752   0.772   0.717   0.559
   47EMIM     H  753   0.571   0.871   0.694
   47EMIM     H  754   0.296   0.933   0.437
   47EMIM     H  755   0.300   0.877   0.606
   47EMIM     H  756   0.382   1.029   0.560
   47EMIM     H  757   0.451   0.797   0.295
   48EMIM     C  758   1.995   1.791   1.395
   48EMIM     C  759   2.028   1.682   1.296
   48EMIM     N  760   1.966   1.555   1.335
   48EMIM     C  761   1.842   1.508   1.295
   48EMIM     C  762   1.824   1.387   1.355
   48EMIM     N  763   1.938   1.362   1.430
   48EMIM     C  764   1.961   1.244   1.512
   48EMIM     C  765   2.022   1.465   1.418
   48EMIM     H  766   2.042   1.885   1.366
   48EMIM     H  767   1.887   1.807   1.402
   48EMIM     H  768   2.031   1.766   1.495
   48EMIM     H  769   2.136   1.667   1.290
   48EMIM     H  770   1.992   1.709   1.196
   48EMIM     H  771   1.782   1.568   1.228
   48EMIM     H  772   1.744   1.314   1.353
   48EMIM     H  773   2.060   1.249   1.558
   48EMIM     H  774   1.885   1.239   1.590
   48EMIM     H  775   1.955   1.155   1.449
   48EMIM     H  776   2.120   1.474   1.465
   49EMIM     C  777   1.008   1.040   0.851
   49EMIM     C  778   1.149   1.013   0.804
   49EMIM     N  779   1.246   1.038   0.911
   49EMIM     C  780   1.294   0.943   1.001
   49EMIM     C  781   1.381   1.009   1.084
   49EMIM     N  782   1.384   1.141   1.042
   49EMIM     C  783   1.464   1.247   1.103
   49EMIM     C  784   1.302   1.157   0.939
   49EMIM     H  785   0.937   1.022   0.770
   49EMIM     H  786   0.982   0.975   0.935
   49EMIM     H  787   0.996   1.143   0.884
   49EMIM     H  788   1.175   1.078   0.720
   49EMIM     H  789   1.160   0.909   0.770
   49EMIM     H  790   1.260   0.841   0.995
   49EMIM     H  791   1.442   0.978   1.167
   49EMIM     H  792   1.449   1.340   1.048
   49EMIM     H  793   1.432   1.260   1.207
   49EMIM     H  794   1.570   1.219   1.100
   49EMIM     H  795   1.283   1.249   0.885
   50EMIM     C  796   1.274   0.891   2.196
   50EMIM     C  797   1.152   0.860   2.281
   50EMIM     N  798   1.191   0.793   2.406
   50EMIM     C  799   1.220   0.856   2.527
   50EMIM     C  800   1.252   0.756   2.615
   50EMIM     N  801   1.242   0.637   2.546
   50EMIM     C  802   1.268   0.505   2.602
   50EMIM     C  803   1.206   0.661   2.420
   50EMIM     H  804   1.243   0.940   2.103
   50EMIM     H  805   1.343   0.956   2.249
   50EMIM     H  806   1.327   0.799   2.170
   50EMIM     H  807   1.083   0.795   2.228
   50EMIM     H  808   1.099   0.953   2.307
   50EMIM     H  809   1.213   0.963   2.534
   50EMIM     H  810   1.280   0.756   2.720
   50EMIM     H  811   1.251   0.428   2.527
   50EMIM     H  812   1.373   0.500   2.634
   50EMIM     H  813   1.203   0.488   2.687
   50EMIM     H  814   1.191   0.587   2.342
   51EMIM     C  815   0.623   1.459   1.832
   51EMIM     C  816   0.491   1.471   1.904
   51EMIM     N  817   0.511   1.489   2.048
   51EMIM     C  818   0.521   1.610   2.115
   51EMIM     C  819   0.540   1.580   2.247
   51EMIM     N  820   0.541   1.442   2.258
   51EMIM     C  821   0.559   1.367   2.381
   51EMIM     C  822   0.524   1.389   2.137
   51EMIM     H  823   0.607   1.445   1.724
   51EMIM     H  824   0.684   1.548   1.846
   51EMIM     H  825   0.680   1.373   1.869
   51EMIM     H  826   0.431   1.382   1.889
   51EMIM     H  827   0.434   1.557   1.866
   51EMIM     H  828   0.513   1.702   2.060
   51EMIM     H  829   0.553   1.641   2.336
   51EMIM     H  830   0.553   1.260   2.360
   51EMIM     H  831   0.658   1.390   2.423
   51EMIM     H  832   0.481   1.395   2.452
   51EMIM     H  833   0.521   1.283   2.113
   52EMIM     C  834   0.915   0.174   1.799
   52EMIM     C  835   0.935   0.216   1.654
   52EMIM     N  836   1.068   0.273   1.634
   52EMIM     C  837   1.182   0.203   1.595
   52EMIM     C  838   1.283   0.294   1.588
   52EMIM     N  839   1.230   0.417   1.623
   52EMIM     C  840   1.303   0.542   1.630
   52EMIM     C  841   1.100   0.402   1.651
   52EMIM     H  842   0.815   0.133   1.813
   52EMIM     H  843   0.988   0.099   1.828
   52EMIM     H  844   0.926   0.260   1.866
   52EMIM     H  845   0.861   0.291   1.625
   52EMIM     H  846   0.923   0.129   1.588
   52EMIM     H  847   1.175   0.097   1.576
   52EMIM     H  848   1.388   0.287   1.562
   52EMIM     H  849   1.235   0.623   1.658
   52EMIM     H  850   1.381   0.533   1.706
   52EMIM     H  851   1.348   0.564   1.533
   52EMIM     H  852   1.031   0.480   1.682
   53EMIM     C  853   1.496   0.923   2.521
   53EMIM     C  854   1.520   1.001   2.649
   53EMIM     N  855   1.564   1.138   2.619
   53EMIM     C  856   1.482   1.249   2.605
   53EMIM     C  857   1.565   1.354   2.577
   53EMIM     N  858   1.694   1.305   2.575
   53EMIM     C  859   1.814   1.384   2.549
   53EMIM     C  860   1.692   1.174   2.600
   53EMIM     H  861   1.464   0.821   2.545
   53EMIM     H  862   1.419   0.970   2.460
   53EMIM     H  863   1.587   0.916   2.462
   53EMIM     H  864   1.596   0.953   2.710
   53EMIM     H  865   1.428   1.007   2.708
   53EMIM     H  866   1.376   1.239   2.617
   53EMIM     H  867   1.547   1.460   2.559
   53EMIM     H  868   1.902   1.320   2.556
   53EMIM     H  869   1.808   1.425   2.448
   53EMIM     H  870   1.821   1.465   2.622
   53EMIM     H  871   1.778   1.108   2.605
   54EMIM     C  872   1.964   1.102   2.363
   54EMIM     C  873   2.112   1.095   2.332
   54EMIM     N  874   2.191   1.162   2.437
   54EMIM     C  875   2.245   1.101   2.549
   54EMIM     C  876   2.309   1.199   2.619
   54EMIM     N  877   2.293   1.316   2.548
   54EMIM     C  878   2.346   1.447   2.586
   54EMIM     C  879   2.220   1.292   2.438
   54EMIM     H  880   1.906   1.053   2.284
   54EMIM     H  881   1.942   1.053   2.458
   54EMIM     H  882   1.930   1.206   2.370
   54EMIM     H  883   2.133   1.144   2.237
   54EMIM     H  884   2.145   0.991   2.325
   54EMIM     H  885   2.231   0.995   2.564
   54EMIM     H  886   2.367   1.200   2.711
   54EMIM     H  887   2.320   1.521   2.511
   54EMIM     H  888   2.301   1.476   2.682
   54EMIM     H  889   2.454   1.441   2.596
   54EMIM     H  890   2.191   1.365   2.363
   55EMIM     C  891   0.731   2.400   0.931
   55EMIM     C  892   0.802   2.269   0.953
   55EMIM     N  893   0.817   2.240   1.096
   55EMIM     C  894   0.728   2.167   1.175
   55EMIM     C  895   0.780   2.166   1.301
   55EMIM     N  896   0.899   2.237   1.296
   55EMIM     C  897   0.988   2.261   1.409
   55EMIM     C  898   0.919   2.282   1.172
   55EMIM     H  899   0.721   2.421   0.824
   55EMIM     H  900   0.631   2.398   0.975
   55EMIM     H  901   0.786   2.483   0.976
   55EMIM     H  902   0.901   2.271   0.908
   55EMIM     H  903   0.746   2.186   0.907
   55EMIM     H  904   0.639   2.126   1.130
   55EMIM     H  905   0.748   2.122   1.394
   55EMIM     H  906   1.075   2.318   1.377
   55EMIM     H  907   0.934   2.319   1.485
   55EMIM     H  908   1.020   2.166   1.451
   55EMIM     H  909   1.004   2.341   1.138
   56EMIM     C  910   1.182   2.620   0.951
   56EMIM     C  911   1.095   2.498   0.932
   56EMIM     N  912   1.055   2.481   0.792
   56EMIM     C  913   1.123   2.407   0.696
   56EMIM     C  914   1.052   2.420   0.580
   56EMIM     N  915   0.944   2.502   0.607
   56EMIM     C  916   0.842   2.542   0.512
   56EMIM     C  917   0.948   2.538   0.736
   56EMIM     H  918   1.210   2.631   1.056
   56EMIM     H  919   1.273   2.612   0.891
   56EMIM     H  920   1.129   2.710   0.920
   56EMIM     H  921   1.004   2.506   0.992
   56EMIM     H  922   1.148   2.407   0.964
   56EMIM     H  923   1.213   2.354   0.723
   56EMIM     H  924   1.065   2.380   0.480
   56EMIM     H  925   0.768   2.604   0.561
   56EMIM     H  926   0.890   2.600   0.432
   56EMIM     H  927   0.794   2.454   0.469
   56EMIM     H  928   0.876   2.602   0.786
   57EMIM     C  929   2.067   1.969   0.339
   57EMIM     C  930   2.135   1.949   0.205
   57EMIM     N  931   2.233   1.840   0.212
   57EMIM     C  932   2.209   1.706   0.183
   57EMIM     C  933   2.328   1.641   0.203
   57EMIM     N  934   2.420   1.736   0.243
   57EMIM     C  935   2.560   1.709   0.276
   57EMIM     C  936   2.361   1.855   0.249
   57EMIM     H  937   1.994   2.051   0.333
   57EMIM     H  938   2.015   1.878   0.370
   57EMIM     H  939   2.140   1.994   0.417
   57EMIM     H  940   2.186   2.039   0.174
   57EMIM     H  941   2.061   1.924   0.128
   57EMIM     H  942   2.111   1.675   0.151
   57EMIM     H  943   2.358   1.537   0.193
   57EMIM     H  944   2.610   1.802   0.302
   57EMIM     H  945   2.564   1.641   0.361
   57EMIM     H  946   2.609   1.664   0.190
   57EMIM     H  947   2.408   1.949   0.278
   58EMIM     C  948   1.904   0.520   1.833
   58EMIM     C  949   1.793   0.455   1.913
   58EMIM     N  950   1.839   0.417   2.047
   58EMIM     C  951   1.831   0.495   2.162
   58EMIM     C  952   1.886   0.421   2.262
   58EMIM     N  953   1.927   0.301   2.207
   58EMIM     C  954   1.991   0.192   2.280
   58EMIM     C  955   1.898   0.300   2.077
   58EMIM     H  956   1.868   0.547   1.734
   58EMIM     H  957   1.940   0.610   1.883
   58EMIM     H  958   1.988   0.452   1.822
   58EMIM     H  959   1.757   0.365   1.863
   58EMIM     H  960   1.708   0.524   1.924
   58EMIM     H  961   1.786   0.593   2.157
   58EMIM     H  962   1.902   0.439   2.368
   58EMIM     H  963   2.009   0.108   2.212
   58EMIM     H  964   2.087   0.227   2.319
   58EMIM     H  965   1.927   0.159   2.361
   58EMIM     H  966   1.918   0.219   2.007
   59EMIM     C  967   2.176   0.254   1.874
   59EMIM     C  968   2.203   0.360   1.980
   59EMIM     N  969   2.345   0.366   2.013
   59EMIM     C  970   2.440   0.450   1.954
   59EMIM     C  971   2.559   0.422   2.015
   59EMIM     N  972   2.535   0.324   2.109
   59EMIM     C  973   2.635   0.265   2.197
   59EMIM     C  974   2.406   0.291   2.106
   59EMIM     H  975   2.069   0.250   1.851
   59EMIM     H  976   2.231   0.276   1.783
   59EMIM     H  977   2.208   0.155   1.909
   59EMIM     H  978   2.148   0.337   2.071
   59EMIM     H  979   2.171   0.458   1.944
   59EMIM     H  980   2.409   0.518   1.876
   59EMIM     H  981   2.659   0.462   2.003
   59EMIM     H  982   2.588   0.192   2.263
   59EMIM     H  983   2.710   0.215   2.136
   59EMIM     H  984   2.682   0.343   2.257
   59EMIM     H  985   2.357   0.216   2.169
   60EMIM     C  986   0.866   1.863   0.538
   60EMIM     C  987   0.932   1.971   0.621
   60EMIM     N  988   1.048   2.028   0.551
   60EMIM     C  989   1.046   2.140   0.468
   60EMIM     C  990   1.174   2.157   0.425
   60EMIM     N  991   1.250   2.057   0.482
   60EMIM     C  992   1.394   2.037   0.462
   60EMIM     C  993   1.172   1.979   0.557
   60EMIM     H  994   0.780   1.821   0.591
   60EMIM     H  995   0.831   1.903   0.443
   60EMIM     H  996   0.936   1.782   0.517
   60EMIM     H  997   0.966   1.931   0.716
   60EMIM     H  998   0.861   2.052   0.642
   60EMIM     H  999   0.954   2.192   0.451
   60EMIM     H 1000   1.222   2.230   0.360
   60EMIM     H 1001   1.428   1.952   0.521
   60EMIM     H 1002   1.412   2.017   0.356
   60EMIM     H 1003   1.447   2.127   0.493
   60EMIM     H 1004   1.204   1.893   0.615
   61EMIM     C 1005   1.845   1.631   0.476
   61EMIM     C 1006   1.909   1.566   0.597
   61EMIM     N 1007   1.945   1.427   0.569
   61EMIM     C 1008   2.068   1.382   0.521
   61EMIM     C 1009   2.057   1.246   0.509
   61EMIM     N 1010   1.930   1.212   0.549
   61EMIM     C 1011   1.875   1.076   0.552
   61EMIM     C 1012   1.863   1.322   0.584
   61EMIM     H 1013   1.818   1.735   0.498
   61EMIM     H 1014   1.914   1.630   0.391
   61EMIM     H 1015   1.755   1.578   0.446
   61EMIM     H 1016   1.841   1.567   0.681
   61EMIM     H 1017   2.000   1.620   0.626
   61EMIM     H 1018   2.147   1.453   0.503
   61EMIM     H 1019   2.126   1.169   0.477
   61EMIM     H 1020   1.773   1.078   0.590
   61EMIM     H 1021   1.875   1.036   0.450
   61EMIM     H 1022   1.938   1.014   0.616
   61EMIM     H 1023   1.760   1.326   0.620
   62EMIM     C 1024   1.368   1.760   1.885
   62EMIM     C 1025   1.323   1.797   1.745
   62EMIM     N 1026   1.192   1.739   1.714
   62EMIM     C 1027   1.069   1.800   1.734
   62EMIM     C 1028   0.974   1.711   1.693
   62EMIM     N 1029   1.041   1.598   1.650
   62EMIM     C 1030   0.978   1.477   1.599
   62EMIM     C 1031   1.172   1.616   1.665
   62EMIM     H 1032   1.466   1.804   1.906
   62EMIM     H 1033   1.297   1.798   1.959
   62EMIM     H 1034   1.375   1.652   1.897
   62EMIM     H 1035   1.394   1.759   1.671
   62EMIM     H 1036   1.316   1.905   1.733
   62EMIM     H 1037   1.065   1.900   1.774
   62EMIM     H 1038   0.866   1.714   1.689
   62EMIM     H 1039   1.054   1.404   1.570
   62EMIM     H 1040   0.915   1.433   1.677
   62EMIM     H 1041   0.917   1.501   1.512
   62EMIM     H 1042   1.250   1.544   1.639
   63EMIM     C 1043   2.574   0.996   1.845
   63EMIM     C 1044   2.553   0.966   1.698
   63EMIM     N 1045   2.430   0.889   1.678
   63EMIM     C 1046   2.303   0.942   1.652
   63EMIM     C 1047   2.219   0.835   1.641
   63EMIM     N 1048   2.294   0.721   1.660
   63EMIM     C 1049   2.244   0.585   1.657
   63EMIM     C 1050   2.421   0.756   1.683
   63EMIM     H 1051   2.667   1.053   1.859
   63EMIM     H 1052   2.491   1.055   1.885
   63EMIM     H 1053   2.582   0.904   1.903
   63EMIM     H 1054   2.636   0.908   1.658
   63EMIM     H 1055   2.545   1.059   1.641
   63EMIM     H 1056   2.291   1.049   1.644
   63EMIM     H 1057   2.113   0.826   1.620
   63EMIM     H 1058   2.326   0.514   1.673
   63EMIM     H 1059   2.170   0.572   1.737
   63EMIM     H 1060   2.197   0.565   1.560
   63EMIM     H 1061   2.504   0.687   1.702
   64EMIM     C 1062   1.158   1.230   2.363
   64EMIM     C 1063   1.142   1.333   2.472
   64EMIM     N 1064   1.044   1.435   2.435
   64EMIM     C 1065   0.907   1.432   2.464
   64EMIM     C 1066   0.854   1.546   2.409
   64EMIM     N 1067   0.958   1.615   2.349
   64EMIM     C 1068   0.945   1.742   2.279
   64EMIM     C 1069   1.071   1.546   2.365
   64EMIM     H 1070   1.232   1.155   2.392
   64EMIM     H 1071   1.063   1.179   2.343
   64EMIM     H 1072   1.191   1.276   2.270
   64EMIM     H 1073   1.237   1.384   2.491
   64EMIM     H 1074   1.109   1.286   2.566
   64EMIM     H 1075   0.867   1.350   2.519
   64EMIM     H 1076   0.754   1.587   2.407
   64EMIM     H 1077   1.043   1.775   2.244
   64EMIM     H 1078   0.879   1.728   2.193
   64EMIM     H 1079   0.904   1.817   2.346
   64EMIM     H 1080   1.170   1.576   2.328
   65EMIM     C 1081   2.117   0.909   1.063
   65EMIM     C 1082   2.112   1.023   1.162
   65EMIM     N 1083   2.001   1.005   1.257
   65EMIM     C 1084   2.009   0.942   1.381
   65EMIM     C 1085   1.884   0.947   1.434
   65EMIM     N 1086   1.803   1.014   1.344
   65EMIM     C 1087   1.661   1.042   1.361
   65EMIM     C 1088   1.876   1.047   1.237
   65EMIM     H 1089   2.199   0.924   0.992
   65EMIM     H 1090   2.132   0.814   1.114
   65EMIM     H 1091   2.024   0.903   1.005
   65EMIM     H 1092   2.097   1.118   1.111
   65EMIM     H 1093   2.206   1.029   1.219
   65EMIM     H 1094   2.103   0.901   1.414
   65EMIM     H 1095   1.841   0.913   1.528
   65EMIM     H 1096   1.624   1.098   1.275
   65EMIM     H 1097   1.607   0.947   1.369
   65EMIM     H 1098   1.646   1.100   1.452
   65EMIM     H 1099   1.840   1.100   1.149
   66EMIM     C 1100   0.755   0.566   1.375
   66EMIM     C 1101   0.866   0.574   1.478
   66EMIM     N 1102   0.997   0.549   1.417
   66EMIM     C 1103   1.083   0.646   1.366
   66EMIM     C 1104   1.192   0.580   1.319
   66EMIM     N 1105   1.171   0.445   1.342
   66EMIM     C 1106   1.263   0.338   1.307
   66EMIM     C 1107   1.052   0.428   1.401
   66EMIM     H 1108   0.658   0.583   1.422
   66EMIM     H 1109   0.770   0.640   1.297
   66EMIM     H 1110   0.753   0.467   1.328
   66EMIM     H 1111   0.851   0.499   1.557
   66EMIM     H 1112   0.868   0.673   1.526
   66EMIM     H 1113   1.054   0.750   1.371
   66EMIM     H 1114   1.284   0.612   1.272
   66EMIM     H 1115   1.222   0.242   1.338
   66EMIM     H 1116   1.276   0.337   1.198
   66EMIM     H 1117   1.359   0.355   1.355
   66EMIM     H 1118   1.008   0.334   1.431
   67EMIM     C 1119   2.473   1.439   1.042
   67EMIM     C 1120   2.412   1.425   0.904
   67EMIM     N 1121   2.487   1.503   0.805
   67EMIM     C 1122   2.592   1.456   0.727
   67EMIM     C 1123   2.633   1.561   0.650
   67EMIM     N 1124   2.553   1.669   0.683
   67EMIM     C 1125   2.562   1.802   0.624
   67EMIM     C 1126   2.466   1.633   0.777
   67EMIM     H 1127   2.415   1.381   1.115
   67EMIM     H 1128   2.576   1.403   1.042
   67EMIM     H 1129   2.474   1.543   1.074
   67EMIM     H 1130   2.309   1.461   0.904
   67EMIM     H 1131   2.411   1.321   0.872
   67EMIM     H 1132   2.624   1.353   0.736
   67EMIM     H 1133   2.710   1.573   0.574
   67EMIM     H 1134   2.485   1.867   0.667
   67EMIM     H 1135   2.661   1.844   0.647
   67EMIM     H 1136   2.549   1.796   0.516
   67EMIM     H 1137   2.390   1.696   0.823
   68EMIM     C 1138   0.498   0.687   2.194
   68EMIM     C 1139   0.482   0.782   2.310
   68EMIM     N 1140   0.608   0.798   2.384
   68EMIM     C 1141   0.704   0.896   2.360
   68EMIM     C 1142   0.804   0.873   2.450
   68EMIM     N 1143   0.767   0.764   2.526
   68EMIM     C 1144   0.846   0.705   2.634
   68EMIM     C 1145   0.649   0.719   2.484
   68EMIM     H 1146   0.403   0.675   2.141
   68EMIM     H 1147   0.573   0.724   2.124
   68EMIM     H 1148   0.530   0.588   2.228
   68EMIM     H 1149   0.407   0.745   2.380
   68EMIM     H 1150   0.449   0.881   2.275
   68EMIM     H 1151   0.688   0.969   2.283
   68EMIM     H 1152   0.899   0.923   2.471
   68EMIM     H 1153   0.792   0.621   2.677
   68EMIM     H 1154   0.941   0.669   2.592
   68EMIM     H 1155   0.865   0.780   2.710
   68EMIM     H 1156   0.594   0.634   2.524
   2.81000   2.81000   2.81000
