A Gromacs structure file written by ASE 
   19
    1EMIM     C    1  -0.268   0.013   0.074  0.0000  0.0000  0.0000
    1EMIM     C    2  -0.190   0.034  -0.054  0.0000  0.0000  0.0000
    1EMIM     N    3  -0.050  -0.007  -0.038  0.0000  0.0000  0.0000
    1EMIM     C    4   0.002  -0.133  -0.066  0.0000  0.0000  0.0000
    1EMIM     C    5   0.135  -0.127  -0.036  0.0000  0.0000  0.0000
    1EMIM     N    6   0.161   0.001   0.009  0.0000  0.0000  0.0000
    1EMIM     C    7   0.291   0.051   0.052  0.0000  0.0000  0.0000
    1EMIM     C    8   0.048   0.072   0.008  0.0000  0.0000  0.0000
    1EMIM     H    9  -0.372   0.045   0.061  0.0000  0.0000  0.0000
    1EMIM     H   10  -0.267  -0.092   0.103  0.0000  0.0000  0.0000
    1EMIM     H   11  -0.225   0.071   0.156  0.0000  0.0000  0.0000
    1EMIM     H   12  -0.191   0.139  -0.083  0.0000  0.0000  0.0000
    1EMIM     H   13  -0.234  -0.024  -0.136  0.0000  0.0000  0.0000
    1EMIM     H   14  -0.063  -0.210  -0.104  0.0000  0.0000  0.0000
    1EMIM     H   15   0.216  -0.199  -0.042  0.0000  0.0000  0.0000
    1EMIM     H   16   0.283   0.156   0.080  0.0000  0.0000  0.0000
    1EMIM     H   17   0.324  -0.007   0.139  0.0000  0.0000  0.0000
    1EMIM     H   18   0.363   0.040  -0.029  0.0000  0.0000  0.0000
    1EMIM     H   19   0.037   0.176   0.038  0.0000  0.0000  0.0000

