A Gromacs structure file written by ASE
 1156
    1TFSI     O    1   2.372   2.258   2.545
    1TFSI     S    2   2.457   2.374   2.516
    1TFSI     O    3   2.399   2.500   2.564
    1TFSI     N    4   2.509   2.374   2.366
    1TFSI     S    5   2.587   2.505   2.323
    1TFSI     O    6   2.646   2.493   2.190
    1TFSI     O    7   2.680   2.559   2.422
    1TFSI     C    8   2.449   2.627   2.305
    1TFSI     F    9   2.327   2.567   2.289
    1TFSI     F   10   2.466   2.704   2.194
    1TFSI     F   11   2.439   2.715   2.409
    1TFSI     C   12   2.614   2.344   2.609
    1TFSI     F   13   2.712   2.290   2.532
    1TFSI     F   14   2.595   2.254   2.711
    1TFSI     F   15   2.665   2.456   2.669
    2TFSI     O   16   1.613   0.582   1.546
    2TFSI     S   17   1.726   0.505   1.493
    2TFSI     O   18   1.846   0.586   1.475
    2TFSI     N   19   1.684   0.414   1.370
    2TFSI     S   20   1.805   0.342   1.297
    2TFSI     O   21   1.760   0.247   1.195
    2TFSI     O   22   1.908   0.285   1.385
    2TFSI     C   23   1.883   0.482   1.204
    2TFSI     F   24   1.797   0.587   1.187
    2TFSI     F   25   1.918   0.443   1.078
    2TFSI     F   26   1.997   0.529   1.261
    2TFSI     C   27   1.763   0.376   1.622
    2TFSI     F   28   1.706   0.256   1.594
    2TFSI     F   29   1.711   0.413   1.744
    2TFSI     F   30   1.896   0.356   1.643
    3TFSI     O   31   0.510   1.025   2.528
    3TFSI     S   32   0.653   1.057   2.520
    3TFSI     O   33   0.715   1.071   2.652
    3TFSI     N   34   0.683   1.173   2.416
    3TFSI     S   35   0.833   1.224   2.415
    3TFSI     O   36   0.859   1.319   2.307
    3TFSI     O   37   0.936   1.120   2.425
    3TFSI     C   38   0.840   1.323   2.571
    3TFSI     F   39   0.716   1.361   2.615
    3TFSI     F   40   0.909   1.440   2.552
    3TFSI     F   41   0.904   1.260   2.674
    3TFSI     C   42   0.731   0.911   2.435
    3TFSI     F   43   0.750   0.931   2.302
    3TFSI     F   44   0.651   0.800   2.444
    3TFSI     F   45   0.851   0.874   2.489
    4TFSI     O   46   1.028   2.497   0.908
    4TFSI     S   47   1.136   2.466   0.814
    4TFSI     O   48   1.103   2.354   0.726
    4TFSI     N   49   1.277   2.459   0.885
    4TFSI     S   50   1.395   2.408   0.792
    4TFSI     O   51   1.526   2.418   0.857
    4TFSI     O   52   1.396   2.460   0.655
    4TFSI     C   53   1.360   2.226   0.782
    4TFSI     F   54   1.280   2.183   0.884
    4TFSI     F   55   1.475   2.153   0.793
    4TFSI     F   56   1.304   2.187   0.664
    4TFSI     C   57   1.156   2.617   0.708
    4TFSI     F   58   1.256   2.698   0.750
    4TFSI     F   59   1.043   2.695   0.713
    4TFSI     F   60   1.176   2.590   0.576
    5TFSI     O   61   1.345   1.435   1.384
    5TFSI     S   62   1.295   1.350   1.492
    5TFSI     O   63   1.381   1.235   1.518
    5TFSI     N   64   1.140   1.319   1.475
    5TFSI     S   65   1.083   1.213   1.579
    5TFSI     O   66   0.937   1.200   1.570
    5TFSI     O   67   1.130   1.227   1.717
    5TFSI     C   68   1.151   1.054   1.512
    5TFSI     F   69   1.188   1.064   1.381
    5TFSI     F   70   1.057   0.955   1.517
    5TFSI     F   71   1.257   1.006   1.583
    5TFSI     C   72   1.294   1.457   1.643
    5TFSI     F   73   1.173   1.512   1.669
    5TFSI     F   74   1.379   1.564   1.628
    5TFSI     F   75   1.336   1.393   1.756
    6TFSI     O   76   1.911   0.926   1.339
    6TFSI     S   77   2.002   1.012   1.262
    6TFSI     O   78   1.946   1.051   1.133
    6TFSI     N   79   2.150   0.956   1.261
    6TFSI     S   80   2.249   1.035   1.165
    6TFSI     O   81   2.387   0.989   1.179
    6TFSI     O   82   2.237   1.181   1.167
    6TFSI     C   83   2.194   0.977   0.998
    6TFSI     F   84   2.124   0.859   1.003
    6TFSI     F   85   2.302   0.951   0.917
    6TFSI     F   86   2.119   1.068   0.929
    6TFSI     C   87   2.022   1.165   1.365
    6TFSI     F   88   2.135   1.164   1.440
    6TFSI     F   89   1.919   1.179   1.455
    6TFSI     F   90   2.022   1.280   1.292
    7TFSI     O   91   1.010   0.106   0.958
    7TFSI     S   92   1.084   0.212   0.890
    7TFSI     O   93   1.120   0.177   0.753
    7TFSI     N   94   1.201   0.270   0.979
    7TFSI     S   95   1.296   0.373   0.905
    7TFSI     O   96   1.393   0.436   0.995
    7TFSI     O   97   1.229   0.470   0.817
    7TFSI     C   98   1.396   0.261   0.797
    7TFSI     F   99   1.395   0.132   0.840
    7TFSI     F  100   1.528   0.298   0.796
    7TFSI     F  101   1.359   0.262   0.666
    7TFSI     C  102   0.968   0.357   0.883
    7TFSI     F  103   0.990   0.446   0.983
    7TFSI     F  104   0.838   0.316   0.899
    7TFSI     F  105   0.971   0.424   0.764
    8TFSI     O  106   1.836   2.719   1.170
    8TFSI     S  107   1.809   2.576   1.149
    8TFSI     O  108   1.772   2.507   1.272
    8TFSI     N  109   1.922   2.507   1.061
    8TFSI     S  110   1.907   2.349   1.049
    8TFSI     O  111   2.004   2.291   0.955
    8TFSI     O  112   1.771   2.298   1.029
    8TFSI     C  113   1.963   2.294   1.217
    8TFSI     F  114   2.038   2.388   1.281
    8TFSI     F  115   2.044   2.184   1.208
    8TFSI     F  116   1.862   2.256   1.300
    8TFSI     C  117   1.664   2.570   1.033
    8TFSI     F  118   1.701   2.552   0.904
    8TFSI     F  119   1.595   2.689   1.035
    8TFSI     F  120   1.573   2.474   1.065
    9TFSI     O  121   0.695   0.988   1.735
    9TFSI     S  122   0.600   0.876   1.736
    9TFSI     O  123   0.659   0.752   1.787
    9TFSI     N  124   0.520   0.865   1.600
    9TFSI     S  125   0.428   0.737   1.588
    9TFSI     O  126   0.344   0.739   1.467
    9TFSI     O  127   0.352   0.700   1.708
    9TFSI     C  128   0.553   0.603   1.558
    9TFSI     F  129   0.672   0.652   1.512
    9TFSI     F  130   0.510   0.516   1.461
    9TFSI     F  131   0.578   0.526   1.667
    9TFSI     C  132   0.466   0.928   1.853
    9TFSI     F  133   0.358   0.980   1.790
    9TFSI     F  134   0.509   1.026   1.938
    9TFSI     F  135   0.422   0.827   1.934
   10TFSI     O  136   0.359   1.331   2.574
   10TFSI     S  137   0.325   1.355   2.434
   10TFSI     O  138   0.251   1.244   2.374
   10TFSI     N  139   0.449   1.409   2.351
   10TFSI     S  140   0.423   1.421   2.195
   10TFSI     O  141   0.534   1.486   2.125
   10TFSI     O  142   0.292   1.475   2.155
   10TFSI     C  143   0.429   1.244   2.142
   10TFSI     F  144   0.494   1.164   2.232
   10TFSI     F  145   0.498   1.230   2.025
   10TFSI     F  146   0.306   1.189   2.117
   10TFSI     C  147   0.214   1.504   2.435
   10TFSI     F  148   0.280   1.619   2.408
   10TFSI     F  149   0.158   1.522   2.559
   10TFSI     F  150   0.109   1.495   2.349
   11TFSI     O  151   1.372   2.029   0.482
   11TFSI     S  152   1.387   1.888   0.444
   11TFSI     O  153   1.487   1.819   0.524
   11TFSI     N  154   1.396   1.869   0.287
   11TFSI     S  155   1.429   1.721   0.241
   11TFSI     O  156   1.422   1.704   0.096
   11TFSI     O  157   1.360   1.614   0.314
   11TFSI     C  158   1.610   1.707   0.283
   11TFSI     F  159   1.670   1.829   0.295
   11TFSI     F  160   1.678   1.644   0.183
   11TFSI     F  161   1.635   1.636   0.395
   11TFSI     C  162   1.222   1.811   0.480
   11TFSI     F  163   1.143   1.801   0.371
   11TFSI     F  164   1.150   1.886   0.570
   11TFSI     F  165   1.231   1.687   0.537
   12TFSI     O  166   0.240   0.101   1.127
   12TFSI     S  167   0.353   0.182   1.079
   12TFSI     O  168   0.460   0.100   1.022
   12TFSI     N  169   0.398   0.291   1.185
   12TFSI     S  170   0.530   0.369   1.147
   12TFSI     O  171   0.558   0.479   1.240
   12TFSI     O  172   0.543   0.409   1.007
   12TFSI     C  173   0.660   0.242   1.181
   12TFSI     F  174   0.617   0.143   1.265
   12TFSI     F  175   0.768   0.298   1.244
   12TFSI     F  176   0.711   0.183   1.069
   12TFSI     C  177   0.284   0.288   0.944
   12TFSI     F  178   0.252   0.413   0.986
   12TFSI     F  179   0.168   0.235   0.894
   12TFSI     F  180   0.367   0.301   0.836
   13TFSI     O  181   1.469   2.666   2.308
   13TFSI     S  182   1.407   2.595   2.421
   13TFSI     O  183   1.348   2.467   2.382
   13TFSI     N  184   1.316   2.690   2.509
   13TFSI     S  185   1.234   2.616   2.622
   13TFSI     O  186   1.163   2.710   2.710
   13TFSI     O  187   1.305   2.512   2.696
   13TFSI     C  188   1.101   2.533   2.524
   13TFSI     F  189   1.083   2.589   2.400
   13TFSI     F  190   0.980   2.543   2.586
   13TFSI     F  191   1.121   2.399   2.507
   13TFSI     C  192   1.547   2.560   2.538
   13TFSI     F  193   1.556   2.651   2.638
   13TFSI     F  194   1.668   2.566   2.474
   13TFSI     F  195   1.541   2.436   2.595
   14TFSI     O  196   2.360   1.717   2.710
   14TFSI     S  197   2.461   1.646   2.631
   14TFSI     O  198   2.415   1.615   2.496
   14TFSI     N  199   2.527   1.526   2.712
   14TFSI     S  200   2.624   1.435   2.626
   14TFSI     O  201   2.695   1.336   2.708
   14TFSI     O  202   2.714   1.506   2.534
   14TFSI     C  203   2.504   1.338   2.524
   14TFSI     F  204   2.379   1.336   2.577
   14TFSI     F  205   2.542   1.207   2.516
   14TFSI     F  206   2.495   1.380   2.394
   14TFSI     C  207   2.604   1.764   2.617
   14TFSI     F  208   2.701   1.739   2.708
   14TFSI     F  209   2.564   1.893   2.641
   14TFSI     F  210   2.661   1.766   2.494
   15TFSI     O  211   0.658   1.304   1.427
   15TFSI     S  212   0.521   1.302   1.375
   15TFSI     O  213   0.422   1.271   1.478
   15TFSI     N  214   0.509   1.220   1.240
   15TFSI     S  215   0.361   1.200   1.188
   15TFSI     O  216   0.357   1.137   1.055
   15TFSI     O  217   0.273   1.317   1.198
   15TFSI     C  218   0.297   1.072   1.305
   15TFSI     F  219   0.397   1.002   1.367
   15TFSI     F  220   0.223   0.977   1.239
   15TFSI     F  221   0.214   1.121   1.401
   15TFSI     C  222   0.489   1.475   1.315
   15TFSI     F  223   0.508   1.489   1.181
   15TFSI     F  224   0.576   1.564   1.373
   15TFSI     F  225   0.365   1.521   1.345
   16TFSI     O  226   1.653   1.964   1.007
   16TFSI     S  227   1.753   1.867   1.055
   16TFSI     O  228   1.797   1.896   1.191
   16TFSI     N  229   1.867   1.842   0.948
   16TFSI     S  230   1.987   1.752   1.001
   16TFSI     O  231   2.082   1.718   0.894
   16TFSI     O  232   1.949   1.636   1.082
   16TFSI     C  233   2.077   1.871   1.111
   16TFSI     F  234   2.048   2.001   1.083
   16TFSI     F  235   2.212   1.860   1.094
   16TFSI     F  236   2.056   1.850   1.244
   16TFSI     C  237   1.666   1.704   1.055
   16TFSI     F  238   1.692   1.630   0.945
   16TFSI     F  239   1.530   1.720   1.057
   16TFSI     F  240   1.695   1.627   1.165
   17TFSI     O  241   0.560   1.337   0.469
   17TFSI     S  242   0.706   1.328   0.483
   17TFSI     O  243   0.747   1.214   0.563
   17TFSI     N  244   0.771   1.468   0.520
   17TFSI     S  245   0.925   1.461   0.554
   17TFSI     O  246   0.984   1.594   0.572
   17TFSI     O  247   1.006   1.376   0.467
   17TFSI     C  248   0.924   1.384   0.722
   17TFSI     F  249   0.804   1.396   0.785
   17TFSI     F  250   1.014   1.446   0.805
   17TFSI     F  251   0.959   1.253   0.723
   17TFSI     C  252   0.770   1.304   0.310
   17TFSI     F  253   0.812   1.419   0.253
   17TFSI     F  254   0.672   1.256   0.227
   17TFSI     F  255   0.871   1.212   0.302
   18TFSI     O  256   2.181   2.438   1.994
   18TFSI     S  257   2.275   2.467   1.885
   18TFSI     O  258   2.225   2.424   1.755
   18TFSI     N  259   2.423   2.424   1.921
   18TFSI     S  260   2.526   2.437   1.802
   18TFSI     O  261   2.664   2.412   1.844
   18TFSI     O  262   2.514   2.558   1.719
   18TFSI     C  263   2.480   2.292   1.696
   18TFSI     F  264   2.410   2.197   1.765
   18TFSI     F  265   2.591   2.228   1.649
   18TFSI     F  266   2.408   2.325   1.585
   18TFSI     C  267   2.290   2.652   1.882
   18TFSI     F  268   2.399   2.697   1.948
   18TFSI     F  269   2.183   2.711   1.944
   18TFSI     F  270   2.293   2.704   1.756
   19TFSI     O  271   1.677   1.155   0.901
   19TFSI     S  272   1.669   1.009   0.906
   19TFSI     O  273   1.569   0.956   0.814
   19TFSI     N  274   1.664   0.954   1.055
   19TFSI     S  275   1.638   0.798   1.066
   19TFSI     O  276   1.650   0.750   1.204
   19TFSI     O  277   1.709   0.714   0.970
   19TFSI     C  278   1.457   0.788   1.026
   19TFSI     F  279   1.393   0.907   1.043
   19TFSI     F  280   1.394   0.700   1.110
   19TFSI     F  281   1.431   0.742   0.901
   19TFSI     C  282   1.835   0.949   0.850
   19TFSI     F  283   1.918   0.918   0.953
   19TFSI     F  284   1.902   1.046   0.779
   19TFSI     F  285   1.829   0.841   0.767
   20TFSI     O  286   1.164   2.407   2.235
   20TFSI     S  287   1.233   2.295   2.170
   20TFSI     O  288   1.187   2.274   2.032
   20TFSI     N  289   1.238   2.167   2.262
   20TFSI     S  290   1.296   2.038   2.192
   20TFSI     O  291   1.314   1.926   2.285
   20TFSI     O  292   1.413   2.058   2.105
   20TFSI     C  293   1.154   1.988   2.083
   20TFSI     F  294   1.036   2.041   2.124
   20TFSI     F  295   1.136   1.852   2.086
   20TFSI     F  296   1.172   2.018   1.951
   20TFSI     C  297   1.411   2.344   2.164
   20TFSI     F  298   1.484   2.291   2.265
   20TFSI     F  299   1.426   2.481   2.177
   20TFSI     F  300   1.473   2.313   2.047
   21TFSI     O  301   1.188   2.080   1.299
   21TFSI     S  302   1.059   2.046   1.361
   21TFSI     O  303   1.068   2.033   1.506
   21TFSI     N  304   0.987   1.927   1.284
   21TFSI     S  305   0.855   1.874   1.356
   21TFSI     O  306   0.783   1.776   1.274
   21TFSI     O  307   0.767   1.977   1.412
   21TFSI     C  308   0.926   1.778   1.497
   21TFSI     F  309   1.056   1.742   1.477
   21TFSI     F  310   0.859   1.660   1.514
   21TFSI     F  311   0.917   1.841   1.618
   21TFSI     C  312   0.947   2.188   1.322
   21TFSI     F  313   0.868   2.166   1.214
   21TFSI     F  314   1.019   2.301   1.291
   21TFSI     F  315   0.867   2.225   1.426
   22TFSI     O  316   0.470   0.709   0.962
   22TFSI     S  317   0.353   0.720   0.874
   22TFSI     O  318   0.256   0.614   0.897
   22TFSI     N  319   0.394   0.747   0.724
   22TFSI     S  320   0.274   0.743   0.621
   22TFSI     O  321   0.314   0.784   0.486
   22TFSI     O  322   0.150   0.808   0.665
   22TFSI     C  323   0.240   0.561   0.609
   22TFSI     F  324   0.346   0.485   0.650
   22TFSI     F  325   0.217   0.524   0.480
   22TFSI     F  326   0.130   0.520   0.679
   22TFSI     C  327   0.273   0.881   0.919
   22TFSI     F  328   0.308   0.983   0.836
   22TFSI     F  329   0.311   0.922   1.045
   22TFSI     F  330   0.136   0.875   0.924
   23TFSI     O  331   1.380   0.607   1.809
   23TFSI     S  332   1.242   0.609   1.858
   23TFSI     O  333   1.146   0.561   1.758
   23TFSI     N  334   1.206   0.747   1.929
   23TFSI     S  335   1.053   0.762   1.968
   23TFSI     O  336   1.028   0.883   2.047
   23TFSI     O  337   0.989   0.643   2.025
   23TFSI     C  338   0.975   0.794   1.803
   23TFSI     F  339   1.064   0.838   1.710
   23TFSI     F  340   0.880   0.893   1.812
   23TFSI     F  341   0.909   0.687   1.751
   23TFSI     C  342   1.238   0.492   2.002
   23TFSI     F  343   1.250   0.555   2.121
   23TFSI     F  344   1.344   0.405   1.996
   23TFSI     F  345   1.126   0.414   2.006
   24TFSI     O  346   1.547   1.457   1.537
   24TFSI     S  347   1.648   1.544   1.477
   24TFSI     O  348   1.690   1.500   1.344
   24TFSI     N  349   1.765   1.578   1.579
   24TFSI     S  350   1.886   1.658   1.516
   24TFSI     O  351   1.984   1.701   1.617
   24TFSI     O  352   1.851   1.765   1.422
   24TFSI     C  353   1.972   1.525   1.418
   24TFSI     F  354   1.939   1.399   1.461
   24TFSI     F  355   2.107   1.533   1.432
   24TFSI     F  356   1.949   1.532   1.284
   24TFSI     C  357   1.566   1.710   1.459
   24TFSI     F  358   1.596   1.794   1.561
   24TFSI     F  359   1.430   1.697   1.461
   24TFSI     F  360   1.596   1.773   1.341
   25TFSI     O  361   2.137   2.010   2.221
   25TFSI     S  362   1.996   1.970   2.231
   25TFSI     O  363   1.972   1.875   2.339
   25TFSI     N  364   1.935   1.933   2.089
   25TFSI     S  365   1.789   1.872   2.095
   25TFSI     O  366   1.731   1.854   1.961
   25TFSI     O  367   1.696   1.936   2.188
   25TFSI     C  368   1.821   1.701   2.158
   25TFSI     F  369   1.951   1.662   2.139
   25TFSI     F  370   1.746   1.609   2.090
   25TFSI     F  371   1.790   1.683   2.289
   25TFSI     C  372   1.903   2.126   2.270
   25TFSI     F  373   1.848   2.184   2.161
   25TFSI     F  374   1.987   2.221   2.324
   25TFSI     F  375   1.804   2.108   2.363
   26TFSI     O  376   2.527   2.253   1.415
   26TFSI     S  377   2.447   2.308   1.305
   26TFSI     O  378   2.516   2.303   1.177
   26TFSI     N  379   2.381   2.447   1.344
   26TFSI     S  380   2.307   2.520   1.224
   26TFSI     O  381   2.234   2.639   1.268
   26TFSI     O  382   2.226   2.434   1.136
   26TFSI     C  383   2.449   2.583   1.124
   26TFSI     F  384   2.565   2.591   1.197
   26TFSI     F  385   2.426   2.711   1.081
   26TFSI     F  386   2.475   2.511   1.012
   26TFSI     C  387   2.298   2.199   1.294
   26TFSI     F  388   2.190   2.249   1.359
   26TFSI     F  389   2.321   2.077   1.353
   26TFSI     F  390   2.260   2.170   1.166
   27TFSI     O  391   0.142   1.884   1.538
   27TFSI     S  392   0.207   1.996   1.470
   27TFSI     O  393   0.347   2.012   1.509
   27TFSI     N  394   0.118   2.127   1.472
   27TFSI     S  395   0.190   2.256   1.415
   27TFSI     O  396   0.099   2.371   1.404
   27TFSI     O  397   0.270   2.237   1.294
   27TFSI     C  398   0.306   2.299   1.553
   27TFSI     F  399   0.269   2.243   1.672
   27TFSI     F  400   0.308   2.434   1.575
   27TFSI     F  401   0.436   2.265   1.528
   27TFSI     C  402   0.203   1.952   1.290
   27TFSI     F  403   0.100   2.010   1.223
   27TFSI     F  404   0.186   1.817   1.272
   27TFSI     F  405   0.319   1.983   1.223
   28TFSI     O  406   1.350   2.699   1.484
   28TFSI     S  407   1.389   2.624   1.604
   28TFSI     O  408   1.338   2.487   1.604
   28TFSI     N  409   1.365   2.708   1.736
   28TFSI     S  410   1.389   2.626   1.870
   28TFSI     O  411   1.382   2.712   1.989
   28TFSI     O  412   1.506   2.538   1.872
   28TFSI     C  413   1.238   2.519   1.877
   28TFSI     F  414   1.136   2.567   1.800
   28TFSI     F  415   1.187   2.513   2.004
   28TFSI     F  416   1.260   2.390   1.841
   28TFSI     C  417   1.574   2.616   1.598
   28TFSI     F  418   1.633   2.712   1.675
   28TFSI     F  419   1.621   2.638   1.471
   28TFSI     F  420   1.625   2.495   1.635
   29TFSI     O  421   1.496   1.609   2.710
   29TFSI     S  422   1.487   1.487   2.629
   29TFSI     O  423   1.487   1.366   2.710
   29TFSI     N  424   1.587   1.490   2.506
   29TFSI     S  425   1.594   1.354   2.425
   29TFSI     O  426   1.675   1.366   2.303
   29TFSI     O  427   1.466   1.287   2.400
   29TFSI     C  428   1.692   1.246   2.539
   29TFSI     F  429   1.765   1.319   2.630
   29TFSI     F  430   1.785   1.173   2.470
   29TFSI     F  431   1.618   1.155   2.607
   29TFSI     C  432   1.323   1.498   2.543
   29TFSI     F  433   1.333   1.546   2.416
   29TFSI     F  434   1.239   1.585   2.608
   29TFSI     F  435   1.256   1.379   2.538
   30TFSI     O  436   1.836   1.045   0.107
   30TFSI     S  437   1.899   1.150   0.188
   30TFSI     O  438   1.804   1.216   0.278
   30TFSI     N  439   1.991   1.246   0.101
   30TFSI     S  440   2.048   1.371   0.179
   30TFSI     O  441   2.145   1.447   0.100
   30TFSI     O  442   2.095   1.346   0.316
   30TFSI     C  443   1.898   1.479   0.191
   30TFSI     F  444   1.803   1.448   0.099
   30TFSI     F  445   1.930   1.610   0.167
   30TFSI     F  446   1.840   1.480   0.314
   30TFSI     C  447   2.025   1.063   0.292
   30TFSI     F  448   2.150   1.069   0.240
   30TFSI     F  449   1.997   0.929   0.301
   30TFSI     F  450   2.031   1.107   0.421
   31TFSI     O  451   0.638   0.453   0.212
   31TFSI     S  452   0.780   0.421   0.227
   31TFSI     O  453   0.824   0.313   0.139
   31TFSI     N  454   0.822   0.408   0.380
   31TFSI     S  455   0.970   0.357   0.403
   31TFSI     O  456   1.009   0.362   0.545
   31TFSI     O  457   1.072   0.413   0.315
   31TFSI     C  458   0.954   0.177   0.363
   31TFSI     F  459   0.825   0.132   0.370
   31TFSI     F  460   1.024   0.100   0.453
   31TFSI     F  461   1.005   0.143   0.241
   31TFSI     C  462   0.871   0.575   0.178
   31TFSI     F  463   0.907   0.652   0.284
   31TFSI     F  464   0.792   0.656   0.100
   31TFSI     F  465   0.983   0.551   0.103
   32TFSI     O  466   0.969   1.749   1.157
   32TFSI     S  467   0.860   1.778   1.063
   32TFSI     O  468   0.811   1.915   1.075
   32TFSI     N  469   0.750   1.663   1.063
   32TFSI     S  470   0.622   1.697   0.976
   32TFSI     O  471   0.530   1.582   0.966
   32TFSI     O  472   0.646   1.761   0.847
   32TFSI     C  473   0.534   1.819   1.085
   32TFSI     F  474   0.575   1.813   1.215
   32TFSI     F  475   0.400   1.795   1.087
   32TFSI     F  476   0.546   1.948   1.043
   32TFSI     C  477   0.934   1.758   0.895
   32TFSI     F  478   0.909   1.636   0.840
   32TFSI     F  479   1.071   1.768   0.899
   32TFSI     F  480   0.894   1.853   0.806
   33TFSI     O  481   2.104   1.100   1.686
   33TFSI     S  482   2.076   0.977   1.760
   33TFSI     O  483   2.147   0.861   1.706
   33TFSI     N  484   1.921   0.957   1.787
   33TFSI     S  485   1.883   0.818   1.852
   33TFSI     O  486   1.741   0.811   1.889
   33TFSI     O  487   1.972   0.769   1.958
   33TFSI     C  488   1.902   0.703   1.707
   33TFSI     F  489   1.897   0.768   1.587
   33TFSI     F  490   1.799   0.613   1.703
   33TFSI     F  491   2.015   0.628   1.710
   33TFSI     C  492   2.139   1.008   1.932
   33TFSI     F  493   2.042   1.046   2.018
   33TFSI     F  494   2.231   1.110   1.933
   33TFSI     F  495   2.204   0.901   1.987
   34TFSI     O  496   0.547   1.929   2.177
   34TFSI     S  497   0.672   1.952   2.250
   34TFSI     O  498   0.662   1.917   2.391
   34TFSI     N  499   0.734   2.094   2.217
   34TFSI     S  500   0.860   2.132   2.305
   34TFSI     O  501   0.924   2.257   2.261
   34TFSI     O  502   0.957   2.025   2.329
   34TFSI     C  503   0.782   2.172   2.468
   34TFSI     F  504   0.649   2.202   2.457
   34TFSI     F  505   0.838   2.284   2.524
   34TFSI     F  506   0.796   2.075   2.562
   34TFSI     C  507   0.796   1.839   2.171
   34TFSI     F  508   0.873   1.902   2.078
   34TFSI     F  509   0.734   1.737   2.103
   34TFSI     F  510   0.879   1.778   2.260
   35EMIM     C  511   1.696   1.200   1.251
   35EMIM     C  512   1.615   1.231   1.375
   35EMIM     N  513   1.588   1.110   1.453
   35EMIM     C  514   1.666   1.060   1.557
   35EMIM     C  515   1.605   0.946   1.600
   35EMIM     N  516   1.492   0.929   1.522
   35EMIM     C  517   1.397   0.819   1.534
   35EMIM     C  518   1.484   1.028   1.433
   35EMIM     H  519   1.714   1.291   1.193
   35EMIM     H  520   1.791   1.155   1.277
   35EMIM     H  521   1.642   1.129   1.186
   35EMIM     H  522   1.519   1.276   1.348
   35EMIM     H  523   1.669   1.302   1.439
   35EMIM     H  524   1.755   1.114   1.586
   35EMIM     H  525   1.628   0.874   1.678
   35EMIM     H  526   1.316   0.832   1.462
   35EMIM     H  527   1.449   0.725   1.513
   35EMIM     H  528   1.356   0.817   1.635
   35EMIM     H  529   1.405   1.041   1.359
   36EMIM     C  530   1.390   1.143   0.172
   36EMIM     C  531   1.387   1.270   0.254
   36EMIM     N  532   1.498   1.273   0.351
   36EMIM     C  533   1.623   1.330   0.329
   36EMIM     C  534   1.695   1.309   0.444
   36EMIM     N  535   1.612   1.242   0.532
   36EMIM     C  536   1.648   1.200   0.667
   36EMIM     C  537   1.494   1.220   0.474
   36EMIM     H  538   1.307   1.141   0.101
   36EMIM     H  539   1.484   1.136   0.116
   36EMIM     H  540   1.382   1.055   0.236
   36EMIM     H  541   1.294   1.277   0.310
   36EMIM     H  542   1.395   1.358   0.190
   36EMIM     H  543   1.645   1.377   0.235
   36EMIM     H  544   1.795   1.336   0.475
   36EMIM     H  545   1.563   1.151   0.714
   36EMIM     H  546   1.731   1.129   0.661
   36EMIM     H  547   1.678   1.287   0.725
   36EMIM     H  548   1.409   1.169   0.518
   37EMIM     C  549   0.760   1.035   1.386
   37EMIM     C  550   0.779   0.937   1.272
   37EMIM     N  551   0.917   0.940   1.222
   37EMIM     C  552   1.022   0.860   1.265
   37EMIM     C  553   1.131   0.897   1.192
   37EMIM     N  554   1.090   0.999   1.107
   37EMIM     C  555   1.175   1.068   1.011
   37EMIM     C  556   0.961   1.024   1.127
   37EMIM     H  557   0.657   1.032   1.422
   37EMIM     H  558   0.827   1.012   1.469
   37EMIM     H  559   0.782   1.137   1.353
   37EMIM     H  560   0.712   0.960   1.190
   37EMIM     H  561   0.757   0.835   1.306
   37EMIM     H  562   1.004   0.786   1.341
   37EMIM     H  563   1.234   0.863   1.189
   37EMIM     H  564   1.117   1.141   0.955
   37EMIM     H  565   1.255   1.119   1.065
   37EMIM     H  566   1.219   0.996   0.942
   37EMIM     H  567   0.901   1.098   1.075
   38EMIM     C  568   0.726   2.489   1.591
   38EMIM     C  569   0.750   2.443   1.733
   38EMIM     N  570   0.780   2.299   1.737
   38EMIM     C  571   0.907   2.242   1.732
   38EMIM     C  572   0.888   2.107   1.737
   38EMIM     N  573   0.752   2.085   1.746
   38EMIM     C  574   0.687   1.954   1.754
   38EMIM     C  575   0.688   2.202   1.745
   38EMIM     H  576   0.703   2.596   1.590
   38EMIM     H  577   0.814   2.472   1.529
   38EMIM     H  578   0.642   2.436   1.546
   38EMIM     H  579   0.663   2.460   1.795
   38EMIM     H  580   0.835   2.497   1.778
   38EMIM     H  581   0.994   2.305   1.725
   38EMIM     H  582   0.956   2.022   1.737
   38EMIM     H  583   0.579   1.967   1.763
   38EMIM     H  584   0.710   1.898   1.663
   38EMIM     H  585   0.725   1.900   1.841
   38EMIM     H  586   0.580   2.217   1.751
   39EMIM     C  587   1.305   1.943   1.547
   39EMIM     C  588   1.273   1.978   1.690
   39EMIM     N  589   1.280   1.859   1.777
   39EMIM     C  590   1.393   1.816   1.847
   39EMIM     C  591   1.355   1.703   1.912
   39EMIM     N  592   1.222   1.679   1.882
   39EMIM     C  593   1.142   1.568   1.931
   39EMIM     C  594   1.179   1.775   1.799
   39EMIM     H  595   1.298   2.032   1.483
   39EMIM     H  596   1.405   1.902   1.538
   39EMIM     H  597   1.234   1.869   1.508
   39EMIM     H  598   1.173   2.019   1.699
   39EMIM     H  599   1.344   2.053   1.728
   39EMIM     H  600   1.484   1.872   1.840
   39EMIM     H  601   1.407   1.635   1.979
   39EMIM     H  602   1.040   1.576   1.893
   39EMIM     H  603   1.187   1.474   1.895
   39EMIM     H  604   1.141   1.569   2.040
   39EMIM     H  605   1.079   1.783   1.757
   40EMIM     C  606   1.516   1.752   2.271
   40EMIM     C  607   1.578   1.795   2.402
   40EMIM     N  608   1.491   1.890   2.473
   40EMIM     C  609   1.394   1.857   2.567
   40EMIM     C  610   1.337   1.975   2.606
   40EMIM     N  611   1.401   2.076   2.536
   40EMIM     C  612   1.372   2.219   2.547
   40EMIM     C  613   1.493   2.023   2.456
   40EMIM     H  614   1.582   1.682   2.219
   40EMIM     H  615   1.420   1.704   2.287
   40EMIM     H  616   1.500   1.839   2.206
   40EMIM     H  617   1.674   1.843   2.386
   40EMIM     H  618   1.594   1.708   2.467
   40EMIM     H  619   1.378   1.754   2.594
   40EMIM     H  620   1.259   2.001   2.677
   40EMIM     H  621   1.438   2.275   2.482
   40EMIM     H  622   1.268   2.236   2.516
   40EMIM     H  623   1.385   2.251   2.650
   40EMIM     H  624   1.559   2.077   2.388
   41EMIM     C  625   2.342   0.578   2.198
   41EMIM     C  626   2.305   0.685   2.098
   41EMIM     N  627   2.309   0.633   1.961
   41EMIM     C  628   2.202   0.578   1.891
   41EMIM     C  629   2.251   0.542   1.768
   41EMIM     N  630   2.385   0.576   1.766
   41EMIM     C  631   2.476   0.555   1.654
   41EMIM     C  632   2.419   0.630   1.883
   41EMIM     H  633   2.340   0.618   2.300
   41EMIM     H  634   2.273   0.494   2.192
   41EMIM     H  635   2.443   0.540   2.179
   41EMIM     H  636   2.375   0.769   2.104
   41EMIM     H  637   2.204   0.723   2.117
   41EMIM     H  638   2.106   0.572   1.938
   41EMIM     H  639   2.206   0.497   1.681
   41EMIM     H  640   2.574   0.594   1.679
   41EMIM     H  641   2.483   0.448   1.634
   41EMIM     H  642   2.437   0.607   1.566
   41EMIM     H  643   2.517   0.667   1.911
   42EMIM     C  644   1.918   1.376   0.997
   42EMIM     C  645   1.931   1.444   0.863
   42EMIM     N  646   2.050   1.397   0.790
   42EMIM     C  647   2.055   1.291   0.700
   42EMIM     C  648   2.184   1.282   0.658
   42EMIM     N  649   2.255   1.382   0.723
   42EMIM     C  650   2.397   1.408   0.707
   42EMIM     C  651   2.172   1.450   0.803
   42EMIM     H  652   1.830   1.412   1.050
   42EMIM     H  653   1.910   1.268   0.985
   42EMIM     H  654   2.006   1.396   1.060
   42EMIM     H  655   1.939   1.552   0.875
   42EMIM     H  656   1.843   1.423   0.801
   42EMIM     H  657   1.964   1.236   0.678
   42EMIM     H  658   2.235   1.217   0.589
   42EMIM     H  659   2.426   1.494   0.768
   42EMIM     H  660   2.453   1.320   0.741
   42EMIM     H  661   2.419   1.429   0.603
   42EMIM     H  662   2.199   1.534   0.867
   43EMIM     C  663   0.742   2.472   0.924
   43EMIM     C  664   0.709   2.328   0.889
   43EMIM     N  665   0.824   2.262   0.825
   43EMIM     C  666   0.923   2.189   0.890
   43EMIM     C  667   1.009   2.147   0.793
   43EMIM     N  668   0.961   2.194   0.672
   43EMIM     C  669   1.022   2.172   0.542
   43EMIM     C  670   0.849   2.264   0.694
   43EMIM     H  671   0.656   2.521   0.971
   43EMIM     H  672   0.826   2.477   0.993
   43EMIM     H  673   0.768   2.529   0.834
   43EMIM     H  674   0.625   2.324   0.820
   43EMIM     H  675   0.683   2.272   0.979
   43EMIM     H  676   0.918   2.177   0.997
   43EMIM     H  677   1.099   2.087   0.795
   43EMIM     H  678   0.962   2.219   0.464
   43EMIM     H  679   1.122   2.217   0.542
   43EMIM     H  680   1.031   2.065   0.523
   43EMIM     H  681   0.789   2.314   0.618
   44EMIM     C  682   2.219   1.715   2.183
   44EMIM     C  683   2.296   1.673   2.306
   44EMIM     N  684   2.365   1.786   2.368
   44EMIM     C  685   2.315   1.869   2.468
   44EMIM     C  686   2.412   1.961   2.494
   44EMIM     N  687   2.518   1.934   2.410
   44EMIM     C  688   2.643   2.008   2.404
   44EMIM     C  689   2.488   1.828   2.334
   44EMIM     H  690   2.169   1.629   2.138
   44EMIM     H  691   2.144   1.791   2.208
   44EMIM     H  692   2.286   1.758   2.108
   44EMIM     H  693   2.370   1.597   2.281
   44EMIM     H  694   2.228   1.629   2.381
   44EMIM     H  695   2.216   1.850   2.507
   44EMIM     H  696   2.419   2.044   2.563
   44EMIM     H  697   2.710   1.963   2.331
   44EMIM     H  698   2.621   2.111   2.374
   44EMIM     H  699   2.690   2.008   2.502
   44EMIM     H  700   2.552   1.783   2.258
   45EMIM     C  701   1.282   1.321   0.705
   45EMIM     C  702   1.283   1.430   0.599
   45EMIM     N  703   1.383   1.533   0.630
   45EMIM     C  704   1.515   1.535   0.585
   45EMIM     C  705   1.572   1.647   0.638
   45EMIM     N  706   1.474   1.710   0.713
   45EMIM     C  707   1.492   1.835   0.787
   45EMIM     C  708   1.361   1.640   0.708
   45EMIM     H  709   1.206   1.246   0.681
   45EMIM     H  710   1.380   1.273   0.710
   45EMIM     H  711   1.259   1.362   0.803
   45EMIM     H  712   1.186   1.479   0.594
   45EMIM     H  713   1.306   1.388   0.501
   45EMIM     H  714   1.550   1.456   0.521
   45EMIM     H  715   1.671   1.691   0.631
   45EMIM     H  716   1.399   1.863   0.835
   45EMIM     H  717   1.569   1.819   0.864
   45EMIM     H  718   1.524   1.913   0.720
   45EMIM     H  719   1.267   1.665   0.757
   46EMIM     C  720   0.213   1.774   2.645
   46EMIM     C  721   0.330   1.867   2.619
   46EMIM     N  722   0.433   1.800   2.539
   46EMIM     C  723   0.443   1.803   2.400
   46EMIM     C  724   0.552   1.728   2.368
   46EMIM     N  725   0.606   1.682   2.486
   46EMIM     C  726   0.725   1.598   2.499
   46EMIM     C  727   0.533   1.726   2.589
   46EMIM     H  728   0.137   1.824   2.706
   46EMIM     H  729   0.167   1.742   2.552
   46EMIM     H  730   0.245   1.684   2.699
   46EMIM     H  731   0.375   1.898   2.713
   46EMIM     H  732   0.296   1.956   2.566
   46EMIM     H  733   0.370   1.858   2.343
   46EMIM     H  734   0.600   1.702   2.274
   46EMIM     H  735   0.746   1.579   2.604
   46EMIM     H  736   0.705   1.502   2.448
   46EMIM     H  737   0.810   1.647   2.452
   46EMIM     H  738   0.550   1.706   2.694
   47EMIM     C  739   0.191   1.599   1.590
   47EMIM     C  740   0.247   1.496   1.685
   47EMIM     N  741   0.370   1.545   1.749
   47EMIM     C  742   0.378   1.613   1.870
   47EMIM     C  743   0.510   1.640   1.891
   47EMIM     N  744   0.579   1.588   1.783
   47EMIM     C  745   0.724   1.594   1.764
   47EMIM     C  746   0.493   1.532   1.698
   47EMIM     H  747   0.100   1.561   1.542
   47EMIM     H  748   0.167   1.692   1.642
   47EMIM     H  749   0.262   1.623   1.511
   47EMIM     H  750   0.271   1.404   1.633
   47EMIM     H  751   0.174   1.473   1.764
   47EMIM     H  752   0.288   1.633   1.926
   47EMIM     H  753   0.565   1.689   1.970
   47EMIM     H  754   0.751   1.543   1.672
   47EMIM     H  755   0.754   1.699   1.757
   47EMIM     H  756   0.773   1.546   1.849
   47EMIM     H  757   0.518   1.482   1.604
   48EMIM     C  758   1.636   1.048   2.290
   48EMIM     C  759   1.585   1.030   2.149
   48EMIM     N  760   1.655   1.119   2.056
   48EMIM     C  761   1.770   1.088   1.983
   48EMIM     C  762   1.801   1.200   1.911
   48EMIM     N  763   1.705   1.295   1.941
   48EMIM     C  764   1.700   1.430   1.885
   48EMIM     C  765   1.619   1.245   2.029
   48EMIM     H  766   1.583   0.981   2.359
   48EMIM     H  767   1.743   1.025   2.296
   48EMIM     H  768   1.621   1.150   2.325
   48EMIM     H  769   1.479   1.052   2.143
   48EMIM     H  770   1.600   0.926   2.115
   48EMIM     H  771   1.814   0.990   1.993
   48EMIM     H  772   1.879   1.223   1.840
   48EMIM     H  773   1.613   1.483   1.924
   48EMIM     H  774   1.791   1.484   1.915
   48EMIM     H  775   1.694   1.425   1.776
   48EMIM     H  776   1.532   1.297   2.071
   49EMIM     C  777   0.222   2.060   0.445
   49EMIM     C  778   0.264   2.005   0.579
   49EMIM     N  779   0.296   1.863   0.571
   49EMIM     C  780   0.422   1.808   0.546
   49EMIM     C  781   0.406   1.673   0.546
   49EMIM     N  782   0.272   1.648   0.569
   49EMIM     C  783   0.211   1.516   0.577
   49EMIM     C  784   0.207   1.763   0.583
   49EMIM     H  785   0.197   2.167   0.453
   49EMIM     H  786   0.302   2.048   0.372
   49EMIM     H  787   0.134   2.008   0.407
   49EMIM     H  788   0.184   2.017   0.653
   49EMIM     H  789   0.352   2.059   0.617
   49EMIM     H  790   0.506   1.874   0.533
   49EMIM     H  791   0.474   1.590   0.532
   49EMIM     H  792   0.105   1.525   0.599
   49EMIM     H  793   0.223   1.465   0.480
   49EMIM     H  794   0.259   1.457   0.655
   49EMIM     H  795   0.101   1.775   0.603
   50EMIM     C  796   1.331   2.604   0.185
   50EMIM     C  797   1.292   2.526   0.309
   50EMIM     N  798   1.313   2.382   0.289
   50EMIM     C  799   1.429   2.312   0.321
   50EMIM     C  800   1.406   2.182   0.286
   50EMIM     N  801   1.278   2.176   0.234
   50EMIM     C  802   1.212   2.056   0.184
   50EMIM     C  803   1.224   2.298   0.236
   50EMIM     H  804   1.313   2.711   0.200
   50EMIM     H  805   1.436   2.589   0.161
   50EMIM     H  806   1.271   2.573   0.099
   50EMIM     H  807   1.187   2.541   0.333
   50EMIM     H  808   1.351   2.559   0.395
   50EMIM     H  809   1.512   2.364   0.365
   50EMIM     H  810   1.465   2.091   0.292
   50EMIM     H  811   1.111   2.080   0.151
   50EMIM     H  812   1.270   2.018   0.098
   50EMIM     H  813   1.209   1.981   0.262
   50EMIM     H  814   1.124   2.325   0.201
   51EMIM     C  815   2.285   1.413   1.670
   51EMIM     C  816   2.183   1.513   1.718
   51EMIM     N  817   2.239   1.649   1.722
   51EMIM     C  818   2.234   1.742   1.619
   51EMIM     C  819   2.299   1.853   1.665
   51EMIM     N  820   2.342   1.825   1.793
   51EMIM     C  821   2.416   1.916   1.880
   51EMIM     C  822   2.305   1.701   1.826
   51EMIM     H  823   2.242   1.312   1.668
   51EMIM     H  824   2.320   1.438   1.569
   51EMIM     H  825   2.372   1.411   1.736
   51EMIM     H  826   2.148   1.488   1.818
   51EMIM     H  827   2.095   1.514   1.651
   51EMIM     H  828   2.184   1.717   1.527
   51EMIM     H  829   2.320   1.950   1.622
   51EMIM     H  830   2.434   1.869   1.976
   51EMIM     H  831   2.512   1.939   1.832
   51EMIM     H  832   2.359   2.007   1.894
   51EMIM     H  833   2.325   1.650   1.920
   52EMIM     C  834   0.584   2.262   1.254
   52EMIM     C  835   0.568   2.397   1.187
   52EMIM     N  836   0.478   2.483   1.263
   52EMIM     C  837   0.515   2.574   1.361
   52EMIM     C  838   0.400   2.632   1.406
   52EMIM     N  839   0.296   2.576   1.334
   52EMIM     C  840   0.155   2.609   1.350
   52EMIM     C  841   0.344   2.486   1.249
   52EMIM     H  842   0.651   2.198   1.196
   52EMIM     H  843   0.626   2.274   1.354
   52EMIM     H  844   0.488   2.211   1.263
   52EMIM     H  845   0.527   2.385   1.087
   52EMIM     H  846   0.665   2.447   1.178
   52EMIM     H  847   0.619   2.586   1.386
   52EMIM     H  848   0.379   2.708   1.480
   52EMIM     H  849   0.095   2.552   1.279
   52EMIM     H  850   0.124   2.584   1.452
   52EMIM     H  851   0.140   2.716   1.332
   52EMIM     H  852   0.287   2.425   1.179
   53EMIM     C  853   2.104   0.429   0.565
   53EMIM     C  854   2.050   0.489   0.693
   53EMIM     N  855   1.910   0.530   0.677
   53EMIM     C  856   1.798   0.452   0.705
   53EMIM     C  857   1.689   0.529   0.675
   53EMIM     N  858   1.737   0.651   0.630
   53EMIM     C  859   1.654   0.763   0.587
   53EMIM     C  860   1.870   0.649   0.631
   53EMIM     H  861   2.209   0.399   0.578
   53EMIM     H  862   2.046   0.341   0.536
   53EMIM     H  863   2.099   0.501   0.483
   53EMIM     H  864   2.108   0.576   0.722
   53EMIM     H  865   2.056   0.416   0.775
   53EMIM     H  866   1.811   0.352   0.743
   53EMIM     H  867   1.582   0.512   0.681
   53EMIM     H  868   1.718   0.847   0.559
   53EMIM     H  869   1.595   0.732   0.500
   53EMIM     H  870   1.588   0.793   0.668
   53EMIM     H  871   1.936   0.731   0.601
   54EMIM     C  872   1.010   1.011   0.467
   54EMIM     C  873   0.948   0.911   0.372
   54EMIM     N  874   0.840   0.837   0.438
   54EMIM     C  875   0.705   0.871   0.438
   54EMIM     C  876   0.641   0.776   0.511
   54EMIM     N  877   0.737   0.686   0.553
   54EMIM     C  878   0.712   0.567   0.635
   54EMIM     C  879   0.856   0.725   0.509
   54EMIM     H  880   1.092   1.065   0.417
   54EMIM     H  881   0.936   1.083   0.501
   54EMIM     H  882   1.052   0.961   0.554
   54EMIM     H  883   1.022   0.839   0.337
   54EMIM     H  884   0.906   0.962   0.284
   54EMIM     H  885   0.673   0.960   0.385
   54EMIM     H  886   0.537   0.760   0.538
   54EMIM     H  887   0.805   0.513   0.651
   54EMIM     H  888   0.671   0.599   0.731
   54EMIM     H  889   0.640   0.503   0.584
   54EMIM     H  890   0.951   0.674   0.526
   55EMIM     C  891   1.489   0.445   0.435
   55EMIM     C  892   1.363   0.509   0.382
   55EMIM     N  893   1.311   0.610   0.475
   55EMIM     C  894   1.341   0.746   0.473
   55EMIM     C  895   1.272   0.802   0.577
   55EMIM     N  896   1.202   0.700   0.639
   55EMIM     C  897   1.116   0.715   0.755
   55EMIM     C  898   1.228   0.585   0.576
   55EMIM     H  899   1.526   0.369   0.366
   55EMIM     H  900   1.567   0.519   0.451
   55EMIM     H  901   1.470   0.396   0.531
   55EMIM     H  902   1.285   0.434   0.366
   55EMIM     H  903   1.382   0.557   0.285
   55EMIM     H  904   1.408   0.784   0.397
   55EMIM     H  905   1.264   0.903   0.614
   55EMIM     H  906   1.071   0.619   0.781
   55EMIM     H  907   1.175   0.751   0.839
   55EMIM     H  908   1.037   0.787   0.732
   55EMIM     H  909   1.187   0.487   0.602
   56EMIM     C  910   1.505   2.261   1.749
   56EMIM     C  911   1.652   2.247   1.782
   56EMIM     N  912   1.687   2.318   1.905
   56EMIM     C  913   1.687   2.263   2.034
   56EMIM     C  914   1.724   2.364   2.118
   56EMIM     N  915   1.745   2.477   2.040
   56EMIM     C  916   1.786   2.607   2.090
   56EMIM     C  917   1.721   2.447   1.912
   56EMIM     H  918   1.481   2.209   1.656
   56EMIM     H  919   1.444   2.220   1.830
   56EMIM     H  920   1.478   2.366   1.737
   56EMIM     H  921   1.714   2.288   1.702
   56EMIM     H  922   1.679   2.141   1.794
   56EMIM     H  923   1.661   2.160   2.047
   56EMIM     H  924   1.739   2.370   2.225
   56EMIM     H  925   1.797   2.677   2.007
   56EMIM     H  926   1.708   2.645   2.158
   56EMIM     H  927   1.880   2.598   2.143
   56EMIM     H  928   1.729   2.515   1.828
   57EMIM     C  929   2.125   2.559   0.838
   57EMIM     C  930   2.082   2.519   0.698
   57EMIM     N  931   1.967   2.429   0.702
   57EMIM     C  932   1.833   2.466   0.696
   57EMIM     C  933   1.761   2.351   0.703
   57EMIM     N  934   1.851   2.247   0.712
   57EMIM     C  935   1.816   2.105   0.722
   57EMIM     C  936   1.975   2.295   0.712
   57EMIM     H  937   2.212   2.625   0.834
   57EMIM     H  938   2.044   2.609   0.891
   57EMIM     H  939   2.153   2.471   0.897
   57EMIM     H  940   2.163   2.469   0.646
   57EMIM     H  941   2.055   2.608   0.640
   57EMIM     H  942   1.808   2.571   0.688
   57EMIM     H  943   1.654   2.330   0.702
   57EMIM     H  944   1.907   2.045   0.725
   57EMIM     H  945   1.759   2.089   0.814
   57EMIM     H  946   1.756   2.077   0.635
   57EMIM     H  947   2.067   2.237   0.718
   58EMIM     C  948   2.606   0.303   0.880
   58EMIM     C  949   2.478   0.323   0.802
   58EMIM     N  950   2.363   0.336   0.892
   58EMIM     C  951   2.312   0.456   0.942
   58EMIM     C  952   2.206   0.422   1.021
   58EMIM     N  953   2.195   0.284   1.018
   58EMIM     C  954   2.094   0.206   1.089
   58EMIM     C  955   2.291   0.234   0.940
   58EMIM     H  956   2.691   0.291   0.812
   58EMIM     H  957   2.625   0.387   0.946
   58EMIM     H  958   2.600   0.213   0.942
   58EMIM     H  959   2.459   0.238   0.736
   58EMIM     H  960   2.484   0.413   0.740
   58EMIM     H  961   2.358   0.549   0.914
   58EMIM     H  962   2.135   0.480   1.080
   58EMIM     H  963   2.107   0.100   1.066
   58EMIM     H  964   2.107   0.221   1.196
   58EMIM     H  965   1.995   0.238   1.058
   58EMIM     H  966   2.307   0.129   0.918
   59EMIM     C  967   1.176   0.515   1.470
   59EMIM     C  968   1.180   0.363   1.471
   59EMIM     N  969   1.301   0.313   1.403
   59EMIM     C  970   1.422   0.284   1.464
   59EMIM     C  971   1.506   0.242   1.365
   59EMIM     N  972   1.434   0.247   1.247
   59EMIM     C  973   1.486   0.210   1.115
   59EMIM     C  974   1.311   0.291   1.271
   59EMIM     H  975   1.085   0.551   1.520
   59EMIM     H  976   1.263   0.556   1.522
   59EMIM     H  977   1.177   0.554   1.368
   59EMIM     H  978   1.094   0.323   1.419
   59EMIM     H  979   1.179   0.325   1.573
   59EMIM     H  980   1.432   0.296   1.571
   59EMIM     H  981   1.609   0.207   1.364
   59EMIM     H  982   1.407   0.221   1.040
   59EMIM     H  983   1.569   0.277   1.090
   59EMIM     H  984   1.520   0.107   1.117
   59EMIM     H  985   1.232   0.306   1.198
   60EMIM     C  986   2.451   2.319   0.733
   60EMIM     C  987   2.525   2.186   0.733
   60EMIM     N  988   2.471   2.096   0.631
   60EMIM     C  989   2.518   2.084   0.500
   60EMIM     C  990   2.439   1.990   0.440
   60EMIM     N  991   2.347   1.947   0.534
   60EMIM     C  992   2.244   1.847   0.512
   60EMIM     C  993   2.367   2.013   0.648
   60EMIM     H  994   2.492   2.385   0.811
   60EMIM     H  995   2.461   2.368   0.637
   60EMIM     H  996   2.345   2.305   0.753
   60EMIM     H  997   2.514   2.137   0.830
   60EMIM     H  998   2.631   2.201   0.714
   60EMIM     H  999   2.601   2.144   0.468
   60EMIM     H 1000   2.437   1.947   0.340
   60EMIM     H 1001   2.187   1.831   0.604
   60EMIM     H 1002   2.176   1.884   0.434
   60EMIM     H 1003   2.289   1.754   0.480
   60EMIM     H 1004   2.311   2.001   0.740
   61EMIM     C 1005   1.577   2.263   1.289
   61EMIM     C 1006   1.436   2.236   1.242
   61EMIM     N 1007   1.345   2.344   1.281
   61EMIM     C 1008   1.313   2.456   1.204
   61EMIM     C 1009   1.227   2.531   1.279
   61EMIM     N 1010   1.208   2.464   1.398
   61EMIM     C 1011   1.123   2.509   1.507
   61EMIM     C 1012   1.281   2.352   1.398
   61EMIM     H 1013   1.644   2.181   1.260
   61EMIM     H 1014   1.615   2.356   1.245
   61EMIM     H 1015   1.581   2.273   1.398
   61EMIM     H 1016   1.398   2.143   1.286
   61EMIM     H 1017   1.433   2.225   1.133
   61EMIM     H 1018   1.357   2.467   1.106
   61EMIM     H 1019   1.175   2.624   1.261
   61EMIM     H 1020   1.125   2.436   1.588
   61EMIM     H 1021   1.161   2.604   1.545
   61EMIM     H 1022   1.021   2.521   1.472
   61EMIM     H 1023   1.286   2.279   1.479
   62EMIM     C 1024   0.816   1.331   1.103
   62EMIM     C 1025   0.902   1.330   1.228
   62EMIM     N 1026   1.010   1.428   1.218
   62EMIM     C 1027   1.005   1.560   1.264
   62EMIM     C 1028   1.126   1.615   1.234
   62EMIM     N 1029   1.202   1.518   1.172
   62EMIM     C 1030   1.338   1.534   1.123
   62EMIM     C 1031   1.130   1.406   1.162
   62EMIM     H 1032   0.736   1.256   1.111
   62EMIM     H 1033   0.770   1.429   1.089
   62EMIM     H 1034   0.875   1.308   1.014
   62EMIM     H 1035   0.947   1.231   1.242
   62EMIM     H 1036   0.842   1.352   1.316
   62EMIM     H 1037   0.915   1.596   1.312
   62EMIM     H 1038   1.169   1.714   1.251
   62EMIM     H 1039   1.374   1.440   1.081
   62EMIM     H 1040   1.338   1.611   1.046
   62EMIM     H 1041   1.403   1.565   1.206
   62EMIM     H 1042   1.162   1.312   1.118
   63EMIM     C 1043   2.542   1.884   0.974
   63EMIM     C 1044   2.626   1.782   1.048
   63EMIM     N 1045   2.546   1.665   1.086
   63EMIM     C 1046   2.531   1.549   1.010
   63EMIM     C 1047   2.449   1.467   1.082
   63EMIM     N 1048   2.415   1.534   1.198
   63EMIM     C 1049   2.328   1.483   1.303
   63EMIM     C 1050   2.474   1.654   1.198
   63EMIM     H 1051   2.602   1.971   0.948
   63EMIM     H 1052   2.501   1.841   0.883
   63EMIM     H 1053   2.458   1.918   1.036
   63EMIM     H 1054   2.667   1.825   1.140
   63EMIM     H 1055   2.710   1.749   0.986
   63EMIM     H 1056   2.582   1.540   0.916
   63EMIM     H 1057   2.409   1.367   1.065
   63EMIM     H 1058   2.321   1.556   1.384
   63EMIM     H 1059   2.228   1.466   1.261
   63EMIM     H 1060   2.368   1.390   1.342
   63EMIM     H 1061   2.467   1.729   1.276
   64EMIM     C 1062   0.214   1.639   0.996
   64EMIM     C 1063   0.194   1.728   0.875
   64EMIM     N 1064   0.293   1.837   0.874
   64EMIM     C 1065   0.417   1.833   0.810
   64EMIM     C 1066   0.476   1.954   0.835
   64EMIM     N 1067   0.388   2.028   0.911
   64EMIM     C 1068   0.411   2.163   0.961
   64EMIM     C 1069   0.278   1.955   0.935
   64EMIM     H 1070   0.138   1.560   0.997
   64EMIM     H 1071   0.313   1.594   0.996
   64EMIM     H 1072   0.203   1.696   1.089
   64EMIM     H 1073   0.095   1.774   0.876
   64EMIM     H 1074   0.205   1.671   0.783
   64EMIM     H 1075   0.446   1.745   0.756
   64EMIM     H 1076   0.571   1.998   0.806
   64EMIM     H 1077   0.324   2.198   1.016
   64EMIM     H 1078   0.498   2.162   1.027
   64EMIM     H 1079   0.429   2.230   0.876
   64EMIM     H 1080   0.191   1.986   0.992
   65EMIM     C 1081   1.954   2.253   2.569
   65EMIM     C 1082   2.101   2.287   2.586
   65EMIM     N 1083   2.171   2.282   2.457
   65EMIM     C 1084   2.191   2.388   2.370
   65EMIM     C 1085   2.260   2.338   2.263
   65EMIM     N 1086   2.281   2.204   2.288
   65EMIM     C 1087   2.352   2.112   2.200
   65EMIM     C 1088   2.226   2.171   2.405
   65EMIM     H 1089   1.903   2.257   2.666
   65EMIM     H 1090   1.906   2.324   2.501
   65EMIM     H 1091   1.942   2.153   2.528
   65EMIM     H 1092   2.149   2.217   2.654
   65EMIM     H 1093   2.113   2.388   2.627
   65EMIM     H 1094   2.153   2.486   2.396
   65EMIM     H 1095   2.298   2.383   2.172
   65EMIM     H 1096   2.356   2.013   2.245
   65EMIM     H 1097   2.297   2.106   2.105
   65EMIM     H 1098   2.453   2.148   2.182
   65EMIM     H 1099   2.227   2.073   2.451
   66EMIM     C 1100   0.303   1.949   1.793
   66EMIM     C 1101   0.167   1.994   1.842
   66EMIM     N 1102   0.175   2.054   1.975
   66EMIM     C 1103   0.193   2.189   2.003
   66EMIM     C 1104   0.196   2.201   2.139
   66EMIM     N 1105   0.181   2.073   2.191
   66EMIM     C 1106   0.179   2.039   2.332
   66EMIM     C 1107   0.170   1.986   2.090
   66EMIM     H 1108   0.295   1.904   1.694
   66EMIM     H 1109   0.371   2.034   1.787
   66EMIM     H 1110   0.347   1.876   1.861
   66EMIM     H 1111   0.099   1.909   1.848
   66EMIM     H 1112   0.123   2.067   1.773
   66EMIM     H 1113   0.200   2.260   1.921
   66EMIM     H 1114   0.207   2.285   2.206
   66EMIM     H 1115   0.163   1.932   2.345
   66EMIM     H 1116   0.275   2.067   2.377
   66EMIM     H 1117   0.099   2.094   2.382
   66EMIM     H 1118   0.157   1.878   2.100
   67EMIM     C 1119   0.491   2.366   2.240
   67EMIM     C 1120   0.427   2.501   2.216
   67EMIM     N 1121   0.401   2.523   2.074
   67EMIM     C 1122   0.284   2.492   2.006
   67EMIM     C 1123   0.304   2.528   1.876
   67EMIM     N 1124   0.432   2.580   1.867
   67EMIM     C 1125   0.495   2.631   1.746
   67EMIM     C 1126   0.490   2.575   1.987
   67EMIM     H 1127   0.511   2.351   2.347
   67EMIM     H 1128   0.427   2.286   2.205
   67EMIM     H 1129   0.587   2.358   2.187
   67EMIM     H 1130   0.491   2.581   2.252
   67EMIM     H 1131   0.331   2.508   2.270
   67EMIM     H 1132   0.201   2.449   2.059
   67EMIM     H 1133   0.242   2.524   1.787
   67EMIM     H 1134   0.595   2.668   1.769
   67EMIM     H 1135   0.502   2.549   1.673
   67EMIM     H 1136   0.435   2.712   1.705
   67EMIM     H 1137   0.590   2.609   2.012
   68EMIM     C 1138   1.935   2.131   1.858
   68EMIM     C 1139   2.052   2.227   1.857
   68EMIM     N 1140   2.012   2.358   1.805
   68EMIM     C 1141   1.968   2.466   1.882
   68EMIM     C 1142   1.941   2.567   1.794
   68EMIM     N 1143   1.969   2.519   1.667
   68EMIM     C 1144   1.954   2.594   1.543
   68EMIM     C 1145   2.011   2.393   1.676
   68EMIM     H 1146   1.967   2.033   1.896
   68EMIM     H 1147   1.855   2.169   1.922
   68EMIM     H 1148   1.895   2.117   1.758
   68EMIM     H 1149   2.132   2.189   1.793
   68EMIM     H 1150   2.093   2.240   1.958
   68EMIM     H 1151   1.962   2.456   1.989
   68EMIM     H 1152   1.905   2.669   1.806
   68EMIM     H 1153   1.986   2.533   1.459
   68EMIM     H 1154   1.849   2.621   1.531
   68EMIM     H 1155   2.015   2.685   1.548
   68EMIM     H 1156   2.041   2.329   1.593
   2.81000   2.81000   2.81000
