; ITP file created by ByteFF-ML, 2026-09-16 11:03:17.641840

[ moleculetype ]
;name             nrexcl
 EMIM                  3

[ atoms ]
;       nr            type      resi   res      atom      cgnr      charge          mass ; qtot
         1            c0bf         1   UNL        c0         1    -0.15007       12.0110 ; qtot   -0.150
         2            c1bf         1   UNL        c1         2     0.10152       12.0110 ; qtot   -0.049
         3            n2bf         1   UNL        n2         3    -0.19044       14.0070 ; qtot   -0.239
         4            c3bf         1   UNL        c3         4    -0.15846       12.0110 ; qtot   -0.397
         5            c4bf         1   UNL        c4         5    -0.10728       12.0110 ; qtot   -0.505
         6            n5bf         1   UNL        n5         6     0.22434       14.0070 ; qtot   -0.280
         7            c6bf         1   UNL        c6         7    -0.09570       12.0110 ; qtot   -0.376
         8            c7bf         1   UNL        c7         8     0.15540       12.0110 ; qtot   -0.221
         9            h8bf         1   UNL        h8         9     0.06333        1.0080 ; qtot   -0.157
        10            h9bf         1   UNL        h9        10     0.06333        1.0080 ; qtot   -0.094
        11           h10bf         1   UNL       h10        11     0.06333        1.0080 ; qtot   -0.031
        12           h11bf         1   UNL       h11        12     0.05822        1.0080 ; qtot    0.028
        13           h12bf         1   UNL       h12        13     0.05822        1.0080 ; qtot    0.086
        14           h13bf         1   UNL       h13        14     0.19942        1.0080 ; qtot    0.285
        15           h14bf         1   UNL       h14        15     0.20419        1.0080 ; qtot    0.489
        16           h15bf         1   UNL       h15        16     0.11242        1.0080 ; qtot    0.602
        17           h16bf         1   UNL       h16        17     0.11242        1.0080 ; qtot    0.714
        18           h17bf         1   UNL       h17        18     0.11242        1.0080 ; qtot    0.827
        19           h18bf         1   UNL       h18        19     0.17339        1.0080 ; qtot    1.000

[ bonds ]
;       ai        aj funct               r               k
         1         2     1        0.151736   192694.804395
         1         9     1        0.109546   304405.101758
         1        10     1        0.109546   304405.101758
         1        11     1        0.109546   304405.152832
         2         3     1        0.147590   181283.840747
         2        12     1        0.109051   308593.800586
         2        13     1        0.109051   308593.800586
         3         4     1        0.138884   252783.188623
         3         8     1        0.134020   361360.108203
         4         5     1        0.136373   401704.348633
         4        14     1        0.107847   346551.112939
         5         6     1        0.139323   253572.004395
         5        15     1        0.108021   350128.427832
         6         7     1        0.149385   184854.592603
         6         8     1        0.134364   357044.668701
         7        16     1        0.108975   315876.269141
         7        17     1        0.108975   315876.269141
         7        18     1        0.108975   315876.269141
         8        19     1        0.108378   345428.399463

[ angles ]
;       ai        aj        ak funct           theta             cth
         1         2         3     1      112.115074      639.509997
         1         2        12     1      111.371025      477.844038
         1         2        13     1      111.371025      477.844038
         2         1         9     1      110.654053      506.672051
         2         1        10     1      110.654053      506.672051
         2         1        11     1      110.654060      506.672083
         2         3         4     1      125.846672      525.384751
         2         3         8     1      126.578354      469.574388
         3         2        12     1      107.389557      529.715494
         3         2        13     1      107.389557      529.715494
         3         4         5     1      105.624817      315.007682
         3         4        14     1      122.454338      426.531782
         3         8         6     1      107.072510      227.688229
         3         8        19     1      126.176010      382.171971
         4         3         8     1      107.082329      225.210491
         4         5         6     1      106.576057      298.772496
         4         5        15     1      132.321030      319.479772
         5         4        14     1      130.890366      319.330253
         5         6         7     1      125.602547      521.119128
         5         6         8     1      106.396172      239.222128
         6         5        15     1      123.725739      429.183268
         6         7        16     1      109.593506      508.058365
         6         7        17     1      109.593506      508.058365
         6         7        18     1      109.593506      508.058365
         6         8        19     1      125.465042      376.314141
         7         6         8     1      125.905548      446.304048
         9         1        10     1      108.585007      362.817939
         9         1        11     1      108.585022      362.817971
        10         1        11     1      108.585022      362.817971
        12         2        13     1      108.141327      343.921084
        16         7        17     1      109.857887      350.560350
        16         7        18     1      109.857887      350.560350
        17         7        18     1      109.857887      350.560350

[ dihedrals ] ; propers for gromacs 4.5 or higher, use funct 9
;       ai        aj        ak        al funct           phase               k        pn
         1         2         3         4     9        0.000000        2.469704         1
         1         2         3         4     9      180.000000        0.992336         2
         1         2         3         4     9        0.000000        0.381077         3
         1         2         3         4     9      180.000000        0.076658         4
         1         2         3         8     9        0.000000        3.622497         1
         1         2         3         8     9      180.000000        0.523379         2
         1         2         3         8     9        0.000000       -0.095791         3
         1         2         3         8     9      180.000000        0.094429         4
         2         3         4         5     9        0.000000       -9.524867         1
         2         3         4         5     9      180.000000       15.207073         2
         2         3         4         5     9        0.000000        0.090177         3
         2         3         4         5     9      180.000000       -1.405040         4
         2         3         4        14     9        0.000000       12.691957         1
         2         3         4        14     9      180.000000        3.895942         2
         2         3         4        14     9        0.000000        0.340745         3
         2         3         4        14     9      180.000000        0.664302         4
         2         3         8         6     9        0.000000      -10.897793         1
         2         3         8         6     9      180.000000       19.098811         2
         2         3         8         6     9        0.000000        0.022152         3
         2         3         8         6     9      180.000000       -1.023982         4
         2         3         8        19     9        0.000000       13.645471         1
         2         3         8        19     9      180.000000        6.728134         2
         2         3         8        19     9        0.000000        0.364679         3
         2         3         8        19     9      180.000000        0.530531         4
         3         2         1         9     9        0.000000        0.764903         1
         3         2         1         9     9      180.000000        3.868328         2
         3         2         1         9     9        0.000000        0.716483         3
         3         2         1         9     9      180.000000       -0.012443         4
         3         2         1        10     9        0.000000        0.764903         1
         3         2         1        10     9      180.000000        3.868328         2
         3         2         1        10     9        0.000000        0.716483         3
         3         2         1        10     9      180.000000       -0.012443         4
         3         2         1        11     9        0.000000        0.764894         1
         3         2         1        11     9      180.000000        3.868329         2
         3         2         1        11     9        0.000000        0.716482         3
         3         2         1        11     9      180.000000       -0.012443         4
         3         4         5         6     9        0.000000       -6.333133         1
         3         4         5         6     9      180.000000       52.257768         2
         3         4         5         6     9        0.000000      -11.627984         3
         3         4         5         6     9      180.000000       -8.221022         4
         3         4         5        15     9        0.000000        6.088669         1
         3         4         5        15     9      180.000000       16.302239         2
         3         4         5        15     9        0.000000       -0.168456         3
         3         4         5        15     9      180.000000        0.215496         4
         3         8         6         5     9        0.000000       -9.761396         1
         3         8         6         5     9      180.000000       48.402327         2
         3         8         6         5     9        0.000000      -10.328507         3
         3         8         6         5     9      180.000000       -6.674085         4
         3         8         6         7     9        0.000000       -7.991854         1
         3         8         6         7     9      180.000000       18.003040         2
         3         8         6         7     9        0.000000       -0.016845         3
         3         8         6         7     9      180.000000       -1.113428         4
         4         3         2        12     9        0.000000        2.317913         1
         4         3         2        12     9      180.000000        1.482872         2
         4         3         2        12     9        0.000000        0.495238         3
         4         3         2        12     9      180.000000        0.032941         4
         4         3         2        13     9        0.000000        2.317913         1
         4         3         2        13     9      180.000000        1.482872         2
         4         3         2        13     9        0.000000        0.495238         3
         4         3         2        13     9      180.000000        0.032941         4
         4         3         8         6     9        0.000000       -6.301948         1
         4         3         8         6     9      180.000000       48.800522         2
         4         3         8         6     9        0.000000      -10.589605         3
         4         3         8         6     9      180.000000       -6.084130         4
         4         3         8        19     9        0.000000        9.579392         1
         4         3         8        19     9      180.000000       13.587203         2
         4         3         8        19     9        0.000000        0.410478         3
         4         3         8        19     9      180.000000        0.326597         4
         4         5         6         7     9        0.000000       -5.102216         1
         4         5         6         7     9      180.000000       16.224434         2
         4         5         6         7     9        0.000000       -0.524156         3
         4         5         6         7     9      180.000000       -1.270912         4
         4         5         6         8     9        0.000000      -34.174494         1
         4         5         6         8     9      180.000000       43.600081         2
         4         5         6         8     9        0.000000       -6.719379         3
         4         5         6         8     9      180.000000       -7.183800         4
         5         4         3         8     9        0.000000      -37.339679         1
         5         4         3         8     9      180.000000       42.171923         2
         5         4         3         8     9        0.000000       -6.027297         3
         5         4         3         8     9      180.000000       -6.747384         4
         5         6         7        16     9        0.000000        2.576637         1
         5         6         7        16     9      180.000000        2.180570         2
         5         6         7        16     9        0.000000        0.493377         3
         5         6         7        16     9      180.000000        0.070520         4
         5         6         7        17     9        0.000000        2.576642         1
         5         6         7        17     9      180.000000        2.180570         2
         5         6         7        17     9        0.000000        0.493378         3
         5         6         7        17     9      180.000000        0.070519         4
         5         6         7        18     9        0.000000        2.576642         1
         5         6         7        18     9      180.000000        2.180570         2
         5         6         7        18     9        0.000000        0.493378         3
         5         6         7        18     9      180.000000        0.070519         4
         5         6         8        19     9        0.000000        6.783440         1
         5         6         8        19     9      180.000000       14.797969         2
         5         6         8        19     9        0.000000        0.174990         3
         5         6         8        19     9      180.000000        0.494968         4
         6         5         4        14     9        0.000000        7.873724         1
         6         5         4        14     9      180.000000       16.051665         2
         6         5         4        14     9        0.000000       -0.163579         3
         6         5         4        14     9      180.000000        0.383904         4
         7         6         5        15     9        0.000000       10.750217         1
         7         6         5        15     9      180.000000        4.203830         2
         7         6         5        15     9        0.000000        0.232777         3
         7         6         5        15     9      180.000000        0.747284         4
         7         6         8        19     9        0.000000        9.936672         1
         7         6         8        19     9      180.000000        6.909156         2
         7         6         8        19     9        0.000000        0.333667         3
         7         6         8        19     9      180.000000        0.645735         4
         8         3         2        12     9        0.000000        3.843909         1
         8         3         2        12     9      180.000000        0.890504         2
         8         3         2        12     9        0.000000        0.125769         3
         8         3         2        12     9      180.000000        0.033929         4
         8         3         2        13     9        0.000000        3.843909         1
         8         3         2        13     9      180.000000        0.890504         2
         8         3         2        13     9        0.000000        0.125769         3
         8         3         2        13     9      180.000000        0.033929         4
         8         3         4        14     9        0.000000        9.273241         1
         8         3         4        14     9      180.000000        9.924018         2
         8         3         4        14     9        0.000000        0.196710         3
         8         3         4        14     9      180.000000        0.701676         4
         8         6         5        15     9        0.000000        8.690180         1
         8         6         5        15     9      180.000000       12.903077         2
         8         6         5        15     9        0.000000        0.170080         3
         8         6         5        15     9      180.000000        0.624786         4
         8         6         7        16     9        0.000000        3.701611         1
         8         6         7        16     9      180.000000        1.941782         2
         8         6         7        16     9        0.000000        0.215940         3
         8         6         7        16     9      180.000000        0.032102         4
         8         6         7        17     9        0.000000        3.701611         1
         8         6         7        17     9      180.000000        1.941782         2
         8         6         7        17     9        0.000000        0.215940         3
         8         6         7        17     9      180.000000        0.032102         4
         8         6         7        18     9        0.000000        3.701611         1
         8         6         7        18     9      180.000000        1.941782         2
         8         6         7        18     9        0.000000        0.215940         3
         8         6         7        18     9      180.000000        0.032102         4
         9         1         2        12     9        0.000000       -0.417964         1
         9         1         2        12     9      180.000000        4.831338         2
         9         1         2        12     9        0.000000        0.759439         3
         9         1         2        12     9      180.000000       -0.089062         4
         9         1         2        13     9        0.000000       -0.417964         1
         9         1         2        13     9      180.000000        4.831338         2
         9         1         2        13     9        0.000000        0.759439         3
         9         1         2        13     9      180.000000       -0.089062         4
        10         1         2        12     9        0.000000       -0.417967         1
        10         1         2        12     9      180.000000        4.831338         2
        10         1         2        12     9        0.000000        0.759440         3
        10         1         2        12     9      180.000000       -0.089062         4
        10         1         2        13     9        0.000000       -0.417967         1
        10         1         2        13     9      180.000000        4.831338         2
        10         1         2        13     9        0.000000        0.759440         3
        10         1         2        13     9      180.000000       -0.089062         4
        11         1         2        12     9        0.000000       -0.417966         1
        11         1         2        12     9      180.000000        4.831338         2
        11         1         2        12     9        0.000000        0.759439         3
        11         1         2        12     9      180.000000       -0.089062         4
        11         1         2        13     9        0.000000       -0.417966         1
        11         1         2        13     9      180.000000        4.831338         2
        11         1         2        13     9        0.000000        0.759439         3
        11         1         2        13     9      180.000000       -0.089062         4
        14         4         5        15     9        0.000000       18.032715         1
        14         4         5        15     9      180.000000       11.490360         2
        14         4         5        15     9        0.000000       -1.001507         3
        14         4         5        15     9      180.000000        0.990122         4

[ dihedrals ] ; impropers
;       ai        aj        ak        al funct           phase               k        pn
         8         3         6        19     4      180.000000        0.763823         2
         8         6        19         3     4      180.000000        0.763823         2
         8        19         3         6     4      180.000000        0.763823         2

[ pairs ]
;       ai        aj funct
         1         4     1
         1         8     1
         2         5     1
         2         6     1
         2        14     1
         2        19     1
         3         7     1
         3         9     1
         3        10     1
         3        11     1
         3        15     1
         4         7     1
         4        12     1
         4        13     1
         4        19     1
         5        16     1
         5        17     1
         5        18     1
         5        19     1
         6        14     1
         7        15     1
         7        19     1
         8        12     1
         8        13     1
         8        14     1
         8        15     1
         8        16     1
         8        17     1
         8        18     1
         9        12     1
         9        13     1
        10        12     1
        10        13     1
        11        12     1
        11        13     1
        14        15     1
