; ITP file created by ByteFF-ML, 2026-09-15 16:38:07.838707

[ moleculetype ]
;name             nrexcl
 DMC                   3

[ atoms ]
;       nr            type      resi   res      atom      cgnr      charge          mass ; qtot
         1            c0bf         1   UNL        c0         1     0.10864       12.0110 ; qtot    0.109
         2            o1bf         1   UNL        o1         2    -0.42232       15.9990 ; qtot   -0.314
         3            c2bf         1   UNL        c2         3     0.90103       12.0110 ; qtot    0.587
         4            o3bf         1   UNL        o3         4    -0.64739       15.9990 ; qtot   -0.060
         5            o4bf         1   UNL        o4         5    -0.42232       15.9990 ; qtot   -0.482
         6            c5bf         1   UNL        c5         6     0.10864       12.0110 ; qtot   -0.374
         7            h6bf         1   UNL        h6         7     0.06229        1.0080 ; qtot   -0.311
         8            h7bf         1   UNL        h7         8     0.06229        1.0080 ; qtot   -0.249
         9            h8bf         1   UNL        h8         9     0.06229        1.0080 ; qtot   -0.187
        10            h9bf         1   UNL        h9        10     0.06229        1.0080 ; qtot   -0.125
        11           h10bf         1   UNL       h10        11     0.06229        1.0080 ; qtot   -0.062
        12           h11bf         1   UNL       h11        12     0.06227        1.0080 ; qtot    0.000

[ bonds ]
;       ai        aj funct               r               k
         1         2     1        0.144440   187105.178052
         1         7     1        0.109217   309338.181787
         1         8     1        0.109217   309338.181787
         1         9     1        0.109217   309338.181787
         2         3     1        0.136059   241662.722363
         3         4     1        0.121941   658868.249609
         3         5     1        0.136059   241662.722363
         5         6     1        0.144440   187105.178052
         6        10     1        0.109217   309338.181787
         6        11     1        0.109217   309338.181787
         6        12     1        0.109217   309338.181787

[ angles ]
;       ai        aj        ak funct           theta             cth
         1         2         3     1      115.355217      523.086252
         2         1         7     1      108.783943      469.018318
         2         1         8     1      108.783943      469.018318
         2         1         9     1      108.783943      469.018318
         2         3         4     1      125.972061      488.893435
         2         3         5     1      108.362930      580.551707
         3         5         6     1      115.355217      523.086252
         4         3         5     1      125.972061      488.893435
         5         6        10     1      108.783943      469.018318
         5         6        11     1      108.783943      469.018477
         5         6        12     1      108.783943      469.018477
         7         1         8     1      110.446426      340.926060
         7         1         9     1      110.446426      340.926060
         8         1         9     1      110.446426      340.926092
        10         6        11     1      110.446426      340.926092
        10         6        12     1      110.446426      340.926092
        11         6        12     1      110.446426      340.926092

[ dihedrals ] ; propers for gromacs 4.5 or higher, use funct 9
;       ai        aj        ak        al funct           phase               k        pn
         1         2         3         4     9        0.000000        3.986853         1
         1         2         3         4     9      180.000000        9.840823         2
         1         2         3         4     9        0.000000        0.284712         3
         1         2         3         4     9      180.000000       -0.356226         4
         1         2         3         5     9        0.000000        3.333991         1
         1         2         3         5     9      180.000000        9.925029         2
         1         2         3         5     9        0.000000        0.543323         3
         1         2         3         5     9      180.000000       -0.136699         4
         2         3         5         6     9        0.000000        3.333991         1
         2         3         5         6     9      180.000000        9.925029         2
         2         3         5         6     9        0.000000        0.543323         3
         2         3         5         6     9      180.000000       -0.136699         4
         3         2         1         7     9        0.000000        4.259205         1
         3         2         1         7     9      180.000000        4.083534         2
         3         2         1         7     9        0.000000        0.241135         3
         3         2         1         7     9      180.000000        0.227645         4
         3         2         1         8     9        0.000000        4.259205         1
         3         2         1         8     9      180.000000        4.083534         2
         3         2         1         8     9        0.000000        0.241135         3
         3         2         1         8     9      180.000000        0.227645         4
         3         2         1         9     9        0.000000        4.259205         1
         3         2         1         9     9      180.000000        4.083534         2
         3         2         1         9     9        0.000000        0.241135         3
         3         2         1         9     9      180.000000        0.227645         4
         3         5         6        10     9        0.000000        4.259205         1
         3         5         6        10     9      180.000000        4.083534         2
         3         5         6        10     9        0.000000        0.241135         3
         3         5         6        10     9      180.000000        0.227645         4
         3         5         6        11     9        0.000000        4.259205         1
         3         5         6        11     9      180.000000        4.083534         2
         3         5         6        11     9        0.000000        0.241135         3
         3         5         6        11     9      180.000000        0.227645         4
         3         5         6        12     9        0.000000        4.259205         1
         3         5         6        12     9      180.000000        4.083534         2
         3         5         6        12     9        0.000000        0.241135         3
         3         5         6        12     9      180.000000        0.227645         4
         4         3         5         6     9        0.000000        3.986853         1
         4         3         5         6     9      180.000000        9.840823         2
         4         3         5         6     9        0.000000        0.284712         3
         4         3         5         6     9      180.000000       -0.356226         4

[ dihedrals ] ; impropers
;       ai        aj        ak        al funct           phase               k        pn
         3         2         4         5     4      180.000000       51.753681         2
         3         4         5         2     4      180.000000       51.753681         2
         3         5         2         4     4      180.000000       51.753681         2

[ pairs ]
;       ai        aj funct
         1         4     1
         1         5     1
         2         6     1
         3         7     1
         3         8     1
         3         9     1
         3        10     1
         3        11     1
         3        12     1
         4         6     1
