A Gromacs structure file written by ASE 
   10
    1FEC      O    1   0.263  -0.053  -0.017  0.0000  0.0000  0.0000
    1FEC      C    2   0.144  -0.028  -0.011  0.0000  0.0000  0.0000
    1FEC      O    3   0.092   0.089   0.037  0.0000  0.0000  0.0000
    1FEC      C    4  -0.047   0.087   0.008  0.0000  0.0000  0.0000
    1FEC      C    5  -0.075  -0.059  -0.007  0.0000  0.0000  0.0000
    1FEC      F    6  -0.099  -0.116   0.114  0.0000  0.0000  0.0000
    1FEC      O    7   0.046  -0.113  -0.055  0.0000  0.0000  0.0000
    1FEC      H    8  -0.063   0.142  -0.085  0.0000  0.0000  0.0000
    1FEC      H    9  -0.103   0.132   0.090  0.0000  0.0000  0.0000
    1FEC      H   10  -0.159  -0.081  -0.074  0.0000  0.0000  0.0000

