A Gromacs structure file written by ASE 
   15
    1EMC      C    1  -0.221   0.095  -0.022  0.0000  0.0000  0.0000
    1EMC      C    2  -0.171  -0.018   0.065  0.0000  0.0000  0.0000
    1EMC      O    3  -0.037   0.007   0.108  0.0000  0.0000  0.0000
    1EMC      C    4   0.060  -0.034   0.022  0.0000  0.0000  0.0000
    1EMC      O    5   0.043  -0.089  -0.085  0.0000  0.0000  0.0000
    1EMC      O    6   0.180  -0.003   0.077  0.0000  0.0000  0.0000
    1EMC      C    7   0.292  -0.041  -0.003  0.0000  0.0000  0.0000
    1EMC      H    8  -0.213   0.191   0.031  0.0000  0.0000  0.0000
    1EMC      H    9  -0.326   0.079  -0.050  0.0000  0.0000  0.0000
    1EMC      H   10  -0.162   0.104  -0.113  0.0000  0.0000  0.0000
    1EMC      H   11  -0.233  -0.025   0.156  0.0000  0.0000  0.0000
    1EMC      H   12  -0.180  -0.115   0.014  0.0000  0.0000  0.0000
    1EMC      H   13   0.294  -0.150  -0.018  0.0000  0.0000  0.0000
    1EMC      H   14   0.383  -0.012   0.050  0.0000  0.0000  0.0000
    1EMC      H   15   0.290   0.011  -0.099  0.0000  0.0000  0.0000

