; ITP file created by ByteFF-ML, 2026-09-15 16:38:08.012970

[ moleculetype ]
;name             nrexcl
 PF6                   3

[ atoms ]
;       nr            type      resi   res      atom      cgnr      charge          mass ; qtot
         1            f0bf         1   UNL        f0         1    -0.52037       18.9980 ; qtot   -0.520
         2            p1bf         1   UNL        p1         2     2.12221       30.9740 ; qtot    1.602
         3            f2bf         1   UNL        f2         3    -0.52037       18.9980 ; qtot    1.081
         4            f3bf         1   UNL        f3         4    -0.52037       18.9980 ; qtot    0.561
         5            f4bf         1   UNL        f4         5    -0.52037       18.9980 ; qtot    0.041
         6            f5bf         1   UNL        f5         6    -0.52037       18.9980 ; qtot   -0.480
         7            f6bf         1   UNL        f6         7    -0.52036       18.9980 ; qtot   -1.000

[ bonds ]
;       ai        aj funct               r               k
         1         2     1        0.165000   418400.000000
         2         3     1        0.165000   418400.000000
         2         4     1        0.165000   418400.000000
         2         5     1        0.165000   418400.000000
         2         6     1        0.165000   418400.000000
         2         7     1        0.165000   418400.000000

[ angles ]
;       ai        aj        ak funct           theta             cth
         1         2         3     1       90.000000     1164.992970
         1         2         4     1       90.000000     1164.992970
         1         2         6     1       90.000000     1164.992970
         1         2         7     1       90.000000     1164.992970
         3         2         4     1       90.000000     1164.992970
         3         2         5     1       90.000000     1164.992970
         3         2         7     1       90.000000     1164.992970
         4         2         5     1       90.000000     1164.992970
         4         2         6     1       90.000000     1164.992970
         5         2         6     1       90.000000     1164.992970
         5         2         7     1       90.000000     1164.992970
         6         2         7     1       90.000000     1164.992970
