A Gromacs structure file written by ASE
 4267
    1EC       O    1   3.572   1.600   1.361
    1EC       C    2   3.675   1.665   1.370
    1EC       O    3   3.758   1.693   1.265
    1EC       C    4   3.876   1.747   1.320
    1EC       C    5   3.829   1.805   1.449
    1EC       O    6   3.723   1.718   1.487
    1EC       H    7   3.948   1.666   1.334
    1EC       H    8   3.919   1.822   1.254
    1EC       H    9   3.789   1.906   1.438
    1EC       H   10   3.907   1.806   1.526
    2EC       O   11   1.405   2.893   1.021
    2EC       C   12   1.480   2.866   1.113
    2EC       O   13   1.536   2.958   1.197
    2EC       C   14   1.633   2.890   1.273
    2EC       C   15   1.584   2.749   1.271
    2EC       O   16   1.519   2.739   1.145
    2EC       H   17   1.730   2.901   1.222
    2EC       H   18   1.641   2.931   1.374
    2EC       H   19   1.511   2.730   1.351
    2EC       H   20   1.665   2.676   1.279
    3EC       O   21   2.869   1.347   3.870
    3EC       C   22   2.911   1.233   3.854
    3EC       O   23   2.920   1.169   3.734
    3EC       C   24   2.948   1.034   3.762
    3EC       C   25   3.016   1.041   3.895
    3EC       O   26   2.954   1.153   3.957
    3EC       H   27   2.854   0.979   3.766
    3EC       H   28   3.012   0.990   3.685
    3EC       H   29   3.123   1.061   3.886
    3EC       H   30   3.001   0.951   3.955
    4EC       O   31   1.178   1.272   1.713
    4EC       C   32   1.168   1.390   1.743
    4EC       O   33   1.051   1.458   1.754
    4EC       C   34   1.083   1.594   1.765
    4EC       C   35   1.221   1.591   1.822
    4EC       O   36   1.275   1.471   1.768
    4EC       H   37   1.081   1.638   1.664
    4EC       H   38   1.013   1.647   1.829
    4EC       H   39   1.220   1.584   1.931
    4EC       H   40   1.282   1.677   1.792
    5EC       O   41   2.761   1.290   0.952
    5EC       C   42   2.668   1.365   0.975
    5EC       O   43   2.676   1.500   0.983
    5EC       C   44   2.554   1.546   1.036
    5EC       C   45   2.459   1.438   0.996
    5EC       O   46   2.540   1.322   0.998
    5EC       H   47   2.564   1.555   1.144
    5EC       H   48   2.527   1.643   0.994
    5EC       H   49   2.420   1.453   0.895
    5EC       H   50   2.375   1.428   1.066
    6EC       O   51   0.100   2.527   1.185
    6EC       C   52   0.139   2.545   1.071
    6EC       O   53   0.181   2.665   1.021
    6EC       C   54   0.194   2.650   0.882
    6EC       C   55   0.218   2.503   0.867
    6EC       O   56   0.145   2.447   0.975
    6EC       H   57   0.100   2.681   0.835
    6EC       H   58   0.276   2.710   0.843
    6EC       H   59   0.324   2.477   0.878
    6EC       H   60   0.182   2.463   0.772
    7EC       O   61   1.462   0.596   2.398
    7EC       C   62   1.342   0.597   2.378
    7EC       O   63   1.261   0.487   2.383
    7EC       C   64   1.136   0.526   2.331
    7EC       C   65   1.134   0.673   2.358
    7EC       O   66   1.270   0.710   2.348
    7EC       H   67   1.134   0.504   2.224
    7EC       H   68   1.054   0.474   2.380
    7EC       H   69   1.098   0.696   2.459
    7EC       H   70   1.073   0.729   2.286
    8EC       O   71   0.546   0.857   0.547
    8EC       C   72   0.574   0.971   0.515
    8EC       O   73   0.486   1.074   0.510
    8EC       C   74   0.551   1.181   0.444
    8EC       C   75   0.695   1.153   0.471
    8EC       O   76   0.700   1.011   0.477
    8EC       H   77   0.526   1.176   0.337
    8EC       H   78   0.519   1.277   0.484
    8EC       H   79   0.728   1.193   0.567
    8EC       H   80   0.761   1.190   0.392
    9EC       O   81   3.791   1.214   2.829
    9EC       C   82   3.810   1.206   2.949
    9EC       O   83   3.832   1.089   3.016
    9EC       C   84   3.825   1.119   3.153
    9EC       C   85   3.862   1.264   3.157
    9EC       O   86   3.812   1.313   3.034
    9EC       H   87   3.722   1.102   3.188
    9EC       H   88   3.894   1.058   3.212
    9EC       H   89   3.970   1.279   3.160
    9EC       H   90   3.816   1.318   3.241
   10EC       O   91   2.029   0.623   1.731
   10EC       C   92   2.106   0.531   1.750
   10EC       O   93   2.240   0.544   1.765
   10EC       C   94   2.295   0.414   1.761
   10EC       C   95   2.180   0.329   1.805
   10EC       O   96   2.067   0.400   1.758
   10EC       H   97   2.324   0.393   1.657
   10EC       H   98   2.381   0.404   1.826
   10EC       H   99   2.175   0.321   1.914
   10EC       H  100   2.183   0.228   1.763
   11EC       O  101   0.305   3.818   2.528
   11EC       C  102   0.420   3.783   2.547
   11EC       O  103   0.524   3.866   2.577
   11EC       C  104   0.642   3.791   2.566
   11EC       C  105   0.595   3.651   2.591
   11EC       O  106   0.462   3.652   2.539
   11EC       H  107   0.682   3.804   2.465
   11EC       H  108   0.717   3.823   2.639
   11EC       H  109   0.591   3.627   2.697
   11EC       H  110   0.655   3.576   2.540
   12EC       O  111   0.608   2.853   3.053
   12EC       C  112   0.501   2.886   3.101
   12EC       O  113   0.483   2.993   3.184
   12EC       C  114   0.353   2.982   3.237
   12EC       C  115   0.281   2.903   3.133
   12EC       O  116   0.383   2.819   3.080
   12EC       H  117   0.359   2.930   3.333
   12EC       H  118   0.308   3.080   3.252
   12EC       H  119   0.242   2.966   3.052
   12EC       H  120   0.199   2.842   3.174
   13EC       O  121   2.507   0.874   3.653
   13EC       C  122   2.464   0.972   3.594
   13EC       O  123   2.337   0.983   3.545
   13EC       C  124   2.336   1.099   3.464
   13EC       C  125   2.446   1.182   3.523
   13EC       O  126   2.538   1.084   3.569
   13EC       H  127   2.356   1.069   3.361
   13EC       H  128   2.239   1.149   3.469
   13EC       H  129   2.411   1.242   3.608
   13EC       H  130   2.493   1.248   3.449
   14EC       O  131   0.910   1.275   2.692
   14EC       C  132   0.959   1.191   2.766
   14EC       O  133   0.971   1.059   2.737
   14EC       C  134   1.009   0.994   2.856
   14EC       C  135   1.078   1.103   2.933
   14EC       O  136   1.008   1.220   2.891
   14EC       H  137   0.919   0.958   2.906
   14EC       H  138   1.075   0.910   2.836
   14EC       H  139   1.183   1.112   2.905
   14EC       H  140   1.070   1.090   3.041
   15EC       O  141   1.049   0.548   1.238
   15EC       C  142   1.058   0.669   1.250
   15EC       O  143   0.964   0.749   1.308
   15EC       C  144   1.001   0.882   1.279
   15EC       C  145   1.149   0.872   1.258
   15EC       O  146   1.165   0.742   1.204
   15EC       H  147   0.948   0.913   1.188
   15EC       H  148   0.975   0.950   1.360
   15EC       H  149   1.204   0.879   1.352
   15EC       H  150   1.188   0.948   1.189
   16EC       O  151   3.869   3.094   3.596
   16EC       C  152   3.808   3.100   3.701
   16EC       O  153   3.793   3.213   3.776
   16EC       C  154   3.739   3.173   3.900
   16EC       C  155   3.667   3.047   3.865
   16EC       O  156   3.746   2.993   3.760
   16EC       H  157   3.821   3.157   3.970
   16EC       H  158   3.671   3.249   3.940
   16EC       H  159   3.566   3.065   3.828
   16EC       H  160   3.662   2.976   3.949
   17EC       O  161   0.175   1.999   0.447
   17EC       C  162   0.254   1.936   0.515
   17EC       O  163   0.339   1.841   0.467
   17EC       C  164   0.394   1.776   0.579
   17EC       C  165   0.384   1.879   0.686
   17EC       O  166   0.266   1.950   0.651
   17EC       H  167   0.334   1.687   0.600
   17EC       H  168   0.498   1.745   0.560
   17EC       H  169   0.469   1.947   0.686
   17EC       H  170   0.373   1.835   0.786
   18EC       O  171   2.739   1.779   3.315
   18EC       C  172   2.708   1.853   3.408
   18EC       O  173   2.749   1.982   3.420
   18EC       C  174   2.714   2.023   3.550
   18EC       C  175   2.599   1.934   3.584
   18EC       O  176   2.630   1.814   3.513
   18EC       H  177   2.800   2.007   3.615
   18EC       H  178   2.686   2.129   3.552
   18EC       H  179   2.504   1.973   3.547
   18EC       H  180   2.591   1.914   3.691
   19EC       O  181   0.147   0.107   3.026
   19EC       C  182   0.258   0.147   3.056
   19EC       O  183   0.331   0.100   3.162
   19EC       C  184   0.440   0.187   3.177
   19EC       C  185   0.458   0.243   3.040
   19EC       O  186   0.325   0.245   2.989
   19EC       H  187   0.413   0.264   3.251
   19EC       H  188   0.529   0.133   3.212
   19EC       H  189   0.519   0.178   2.977
   19EC       H  190   0.501   0.344   3.040
   20EC       O  191   2.442   1.119   1.941
   20EC       C  192   2.425   1.200   1.852
   20EC       O  193   2.305   1.255   1.819
   20EC       C  194   2.323   1.323   1.697
   20EC       C  195   2.470   1.355   1.698
   20EC       O  196   2.525   1.246   1.771
   20EC       H  197   2.296   1.255   1.615
   20EC       H  198   2.261   1.413   1.691
   20EC       H  199   2.491   1.448   1.752
   20EC       H  200   2.513   1.361   1.598
   21EC       O  201   1.820   2.136   0.119
   21EC       C  202   1.819   2.254   0.151
   21EC       O  203   1.917   2.344   0.123
   21EC       C  204   1.889   2.460   0.197
   21EC       C  205   1.741   2.452   0.217
   21EC       O  206   1.717   2.312   0.222
   21EC       H  207   1.944   2.454   0.292
   21EC       H  208   1.919   2.550   0.144
   21EC       H  209   1.686   2.494   0.132
   21EC       H  210   1.707   2.500   0.309
   22EC       O  211   3.602   1.950   1.940
   22EC       C  212   3.481   1.955   1.953
   22EC       O  213   3.400   1.848   1.981
   22EC       C  214   3.268   1.892   1.964
   22EC       C  215   3.277   2.039   1.988
   22EC       O  216   3.408   2.070   1.941
   22EC       H  217   3.236   1.868   1.861
   22EC       H  218   3.200   1.843   2.034
   22EC       H  219   3.271   2.064   2.094
   22EC       H  220   3.202   2.096   1.933
   23EC       O  221   0.100   3.294   2.269
   23EC       C  222   0.157   3.400   2.254
   23EC       O  223   0.278   3.416   2.193
   23EC       C  224   0.319   3.548   2.218
   23EC       C  225   0.189   3.620   2.239
   23EC       O  226   0.107   3.520   2.297
   23EC       H  227   0.382   3.549   2.308
   23EC       H  228   0.376   3.589   2.134
   23EC       H  229   0.145   3.653   2.144
   23EC       H  230   0.199   3.706   2.306
   24EC       O  231   2.305   2.939   0.476
   24EC       C  232   2.396   3.018   0.495
   24EC       O  233   2.478   3.018   0.604
   24EC       C  234   2.552   3.138   0.599
   24EC       C  235   2.553   3.170   0.452
   24EC       O  236   2.428   3.118   0.408
   24EC       H  237   2.499   3.213   0.658
   24EC       H  238   2.652   3.124   0.639
   24EC       H  239   2.634   3.119   0.400
   24EC       H  240   2.559   3.277   0.433
   25EC       O  241   1.281   2.161   3.263
   25EC       C  242   1.199   2.246   3.293
   25EC       O  243   1.070   2.220   3.327
   25EC       C  244   1.002   2.344   3.329
   25EC       C  245   1.112   2.441   3.356
   25EC       O  246   1.225   2.380   3.294
   25EC       H  247   0.956   2.359   3.231
   25EC       H  248   0.925   2.346   3.406
   25EC       H  249   1.133   2.452   3.463
   25EC       H  250   1.093   2.540   3.314
   26EC       O  251   1.289   2.565   3.885
   26EC       C  252   1.336   2.676   3.868
   26EC       O  253   1.263   2.789   3.849
   26EC       C  254   1.353   2.890   3.809
   26EC       C  255   1.483   2.843   3.867
   26EC       O  256   1.471   2.702   3.863
   26EC       H  257   1.355   2.892   3.699
   26EC       H  258   1.324   2.988   3.846
   26EC       H  259   1.496   2.875   3.970
   26EC       H  260   1.570   2.876   3.808
   27EC       O  261   1.726   1.247   0.329
   27EC       C  262   1.630   1.323   0.334
   27EC       O  263   1.582   1.381   0.448
   27EC       C  264   1.458   1.439   0.415
   27EC       C  265   1.472   1.464   0.268
   27EC       O  266   1.556   1.359   0.225
   27EC       H  267   1.379   1.366   0.437
   27EC       H  268   1.440   1.530   0.471
   27EC       H  269   1.521   1.560   0.247
   27EC       H  270   1.376   1.461   0.215
   28EC       O  271   3.730   0.381   1.744
   28EC       C  272   3.613   0.348   1.746
   28EC       O  273   3.507   0.433   1.734
   28EC       C  274   3.392   0.361   1.767
   28EC       C  275   3.431   0.220   1.737
   28EC       O  276   3.570   0.219   1.764
   28EC       H  277   3.371   0.376   1.874
   28EC       H  278   3.306   0.393   1.709
   28EC       H  279   3.415   0.195   1.631
   28EC       H  280   3.379   0.146   1.799
   29EC       O  281   2.695   0.728   3.382
   29EC       C  282   2.733   0.843   3.391
   29EC       O  283   2.655   0.953   3.368
   29EC       C  284   2.742   1.064   3.364
   29EC       C  285   2.858   1.019   3.447
   29EC       O  286   2.861   0.879   3.424
   29EC       H  287   2.770   1.082   3.260
   29EC       H  288   2.694   1.153   3.405
   29EC       H  289   2.842   1.037   3.554
   29EC       H  290   2.952   1.065   3.417
   30EC       O  291   0.278   1.126   3.697
   30EC       C  292   0.347   1.026   3.688
   30EC       O  293   0.299   0.898   3.681
   30EC       C  294   0.410   0.812   3.696
   30EC       C  295   0.524   0.896   3.648
   30EC       O  296   0.484   1.028   3.683
   30EC       H  297   0.419   0.786   3.802
   30EC       H  298   0.398   0.721   3.637
   30EC       H  299   0.536   0.891   3.539
   30EC       H  300   0.619   0.870   3.695
   31EC       O  301   1.965   2.985   3.284
   31EC       C  302   1.874   2.975   3.365
   31EC       O  303   1.750   2.926   3.336
   31EC       C  304   1.669   2.953   3.447
   31EC       C  305   1.767   2.960   3.559
   31EC       O  306   1.884   3.010   3.497
   31EC       H  307   1.618   3.049   3.431
   31EC       H  308   1.594   2.875   3.462
   31EC       H  309   1.789   2.861   3.601
   31EC       H  310   1.735   3.026   3.641
   32EC       O  311   1.695   0.353   0.312
   32EC       C  312   1.627   0.441   0.362
   32EC       O  313   1.545   0.424   0.470
   32EC       C  314   1.467   0.540   0.481
   32EC       C  315   1.553   0.644   0.416
   32EC       O  316   1.623   0.570   0.317
   32EC       H  317   1.373   0.525   0.427
   32EC       H  318   1.445   0.564   0.585
   32EC       H  319   1.626   0.687   0.486
   32EC       H  320   1.496   0.725   0.370
   33EC       O  321   1.653   1.565   3.145
   33EC       C  322   1.627   1.478   3.227
   33EC       O  323   1.688   1.357   3.233
   33EC       C  324   1.614   1.278   3.323
   33EC       C  325   1.549   1.381   3.411
   33EC       O  326   1.531   1.491   3.323
   33EC       H  327   1.540   1.220   3.266
   33EC       H  328   1.678   1.210   3.379
   33EC       H  329   1.614   1.411   3.493
   33EC       H  330   1.453   1.347   3.452
   34EC       O  331   2.346   3.137   0.205
   34EC       C  332   2.403   3.029   0.198
   34EC       O  333   2.529   3.005   0.243
   34EC       C  334   2.566   2.878   0.195
   34EC       C  335   2.434   2.810   0.179
   34EC       O  336   2.347   2.917   0.145
   34EC       H  337   2.618   2.890   0.100
   34EC       H  338   2.631   2.826   0.266
   34EC       H  339   2.399   2.764   0.272
   34EC       H  340   2.434   2.734   0.100
   35EC       O  341   3.028   2.822   1.077
   35EC       C  342   3.003   2.707   1.109
   35EC       O  343   2.957   2.669   1.231
   35EC       C  344   2.964   2.528   1.235
   35EC       C  345   2.956   2.490   1.090
   35EC       O  346   3.019   2.600   1.025
   35EC       H  347   3.060   2.500   1.280
   35EC       H  348   2.883   2.485   1.293
   35EC       H  349   2.853   2.483   1.056
   35EC       H  350   3.009   2.397   1.068
   36EC       O  351   0.259   0.672   0.106
   36EC       C  352   0.365   0.654   0.163
   36EC       O  353   0.410   0.727   0.269
   36EC       C  354   0.545   0.692   0.288
   36EC       C  355   0.552   0.554   0.230
   36EC       O  356   0.456   0.558   0.126
   36EC       H  357   0.607   0.764   0.234
   36EC       H  358   0.572   0.694   0.394
   36EC       H  359   0.523   0.478   0.303
   36EC       H  360   0.651   0.530   0.190
   37EC       O  361   2.465   1.973   0.849
   37EC       C  362   2.531   2.043   0.775
   37EC       O  363   2.491   2.087   0.652
   37EC       C  364   2.603   2.144   0.590
   37EC       C  365   2.689   2.184   0.705
   37EC       O  366   2.658   2.087   0.804
   37EC       H  367   2.651   2.066   0.528
   37EC       H  368   2.576   2.228   0.526
   37EC       H  369   2.662   2.283   0.743
   37EC       H  370   2.796   2.183   0.682
   38EC       O  371   2.845   2.075   3.127
   38EC       C  372   2.933   2.044   3.206
   38EC       O  373   2.925   1.942   3.295
   38EC       C  374   3.034   1.955   3.383
   38EC       C  375   3.134   2.030   3.300
   38EC       O  376   3.052   2.110   3.216
   38EC       H  377   3.001   2.013   3.470
   38EC       H  378   3.072   1.859   3.416
   38EC       H  379   3.194   1.963   3.238
   38EC       H  380   3.201   2.093   3.360
   39EC       O  381   2.313   2.633   3.801
   39EC       C  382   2.196   2.608   3.824
   39EC       O  383   2.149   2.488   3.867
   39EC       C  384   2.009   2.493   3.857
   39EC       C  385   1.979   2.639   3.866
   39EC       O  386   2.094   2.698   3.807
   39EC       H  387   1.980   2.451   3.760
   39EC       H  388   1.961   2.436   3.937
   39EC       H  389   1.972   2.673   3.970
   39EC       H  390   1.889   2.668   3.812
   40EC       O  391   1.356   0.872   1.535
   40EC       C  392   1.412   0.764   1.534
   40EC       O  393   1.351   0.643   1.517
   40EC       C  394   1.446   0.544   1.547
   40EC       C  395   1.576   0.613   1.520
   40EC       O  396   1.547   0.749   1.552
   40EC       H  397   1.434   0.517   1.653
   40EC       H  398   1.432   0.455   1.485
   40EC       H  399   1.605   0.607   1.415
   40EC       H  400   1.658   0.575   1.582
   41EC       O  401   0.562   2.886   3.840
   41EC       C  402   0.684   2.885   3.840
   41EC       O  403   0.761   2.833   3.939
   41EC       C  404   0.893   2.874   3.914
   41EC       C  405   0.894   2.896   3.766
   41EC       O  406   0.761   2.939   3.740
   41EC       H  407   0.912   2.966   3.970
   41EC       H  408   0.966   2.798   3.944
   41EC       H  409   0.913   2.804   3.710
   41EC       H  410   0.966   2.973   3.734
   42EC       O  411   0.477   2.602   1.059
   42EC       C  412   0.473   2.720   1.028
   42EC       O  413   0.581   2.794   0.991
   42EC       C  414   0.540   2.928   0.988
   42EC       C  415   0.392   2.917   0.963
   42EC       O  416   0.359   2.795   1.028
   42EC       H  417   0.562   2.974   1.085
   42EC       H  418   0.590   2.984   0.910
   42EC       H  419   0.369   2.908   0.857
   42EC       H  420   0.335   3.000   1.006
   43EC       O  421   1.998   3.792   3.177
   43EC       C  422   1.893   3.766   3.120
   43EC       O  423   1.805   3.670   3.160
   43EC       C  424   1.710   3.656   3.056
   43EC       C  425   1.714   3.790   2.989
   43EC       O  426   1.849   3.831   3.008
   43EC       H  427   1.744   3.576   2.989
   43EC       H  428   1.612   3.632   3.095
   43EC       H  429   1.648   3.862   3.038
   43EC       H  430   1.689   3.785   2.883
   44EC       O  431   1.956   1.324   1.437
   44EC       C  432   1.874   1.406   1.397
   44EC       O  433   1.875   1.461   1.272
   44EC       C  434   1.782   1.567   1.274
   44EC       C  435   1.687   1.526   1.383
   44EC       O  436   1.771   1.454   1.472
   44EC       H  437   1.835   1.659   1.298
   44EC       H  438   1.732   1.578   1.178
   44EC       H  439   1.609   1.458   1.346
   44EC       H  440   1.640   1.611   1.433
   45EC       O  441   3.970   3.659   1.089
   45EC       C  442   3.938   3.670   0.971
   45EC       O  443   3.958   3.782   0.896
   45EC       C  444   3.886   3.763   0.776
   45EC       C  445   3.881   3.614   0.764
   45EC       O  446   3.877   3.571   0.899
   45EC       H  447   3.787   3.808   0.788
   45EC       H  448   3.937   3.810   0.691
   45EC       H  449   3.970   3.573   0.716
   45EC       H  450   3.792   3.579   0.710
   46EC       O  451   3.159   3.925   3.055
   46EC       C  452   3.042   3.895   3.035
   46EC       O  453   2.981   3.783   3.083
   46EC       C  454   2.857   3.773   3.018
   46EC       C  455   2.827   3.915   2.981
   46EC       O  456   2.956   3.970   2.960
   46EC       H  457   2.870   3.709   2.930
   46EC       H  458   2.781   3.730   3.083
   46EC       H  459   2.779   3.969   3.063
   46EC       H  460   2.766   3.924   2.891
   47EC       O  461   0.513   2.255   1.196
   47EC       C  462   0.443   2.222   1.102
   47EC       O  463   0.449   2.101   1.039
   47EC       C  464   0.371   2.111   0.923
   47EC       C  465   0.273   2.218   0.958
   47EC       O  466   0.347   2.302   1.046
   47EC       H  467   0.436   2.140   0.840
   47EC       H  468   0.322   2.017   0.899
   47EC       H  469   0.186   2.179   1.012
   47EC       H  470   0.238   2.275   0.871
   48EC       O  471   0.115   0.725   2.338
   48EC       C  472   0.143   0.831   2.285
   48EC       O  473   0.126   0.860   2.153
   48EC       C  474   0.194   0.980   2.128
   48EC       C  475   0.194   1.047   2.262
   48EC       O  476   0.199   0.937   2.352
   48EC       H  477   0.295   0.957   2.093
   48EC       H  478   0.143   1.040   2.052
   48EC       H  479   0.102   1.103   2.280
   48EC       H  480   0.280   1.113   2.276
   49EC       O  481   1.740   1.324   3.021
   49EC       C  482   1.845   1.263   3.003
   49EC       O  483   1.855   1.130   2.980
   49EC       C  484   1.991   1.096   2.990
   49EC       C  485   2.059   1.225   2.956
   49EC       O  486   1.968   1.323   3.005
   49EC       H  487   2.012   1.064   3.092
   49EC       H  488   2.018   1.016   2.921
   49EC       H  489   2.071   1.239   2.848
   49EC       H  490   2.157   1.236   3.004
   50EC       O  491   2.949   2.532   2.712
   50EC       C  492   3.041   2.452   2.717
   50EC       O  493   3.030   2.318   2.694
   50EC       C  494   3.151   2.260   2.734
   50EC       C  495   3.249   2.372   2.720
   50EC       O  496   3.170   2.487   2.749
   50EC       H  497   3.141   2.226   2.838
   50EC       H  498   3.177   2.174   2.671
   50EC       H  499   3.288   2.381   2.619
   50EC       H  500   3.333   2.365   2.790
   51EC       O  501   2.171   0.387   3.393
   51EC       C  502   2.189   0.315   3.296
   51EC       O  503   2.099   0.298   3.195
   51EC       C  504   2.146   0.191   3.116
   51EC       C  505   2.293   0.194   3.141
   51EC       O  506   2.302   0.242   3.275
   51EC       H  507   2.099   0.098   3.153
   51EC       H  508   2.121   0.204   3.011
   51EC       H  509   2.345   0.264   3.075
   51EC       H  510   2.340   0.095   3.132
   52EC       O  511   0.908   3.751   3.309
   52EC       C  512   0.862   3.777   3.199
   52EC       O  513   0.827   3.685   3.106
   52EC       C  514   0.803   3.754   2.986
   52EC       C  515   0.765   3.891   3.034
   52EC       O  516   0.841   3.905   3.154
   52EC       H  517   0.896   3.755   2.927
   52EC       H  518   0.724   3.708   2.928
   52EC       H  519   0.659   3.898   3.058
   52EC       H  520   0.791   3.970   2.963
   53EC       O  521   2.169   0.810   2.914
   53EC       C  522   2.158   0.695   2.954
   53EC       O  523   2.050   0.614   2.932
   53EC       C  524   2.066   0.502   3.015
   53EC       C  525   2.214   0.495   3.035
   53EC       O  526   2.253   0.632   3.030
   53EC       H  527   2.013   0.520   3.109
   53EC       H  528   2.026   0.412   2.969
   53EC       H  529   2.264   0.441   2.954
   53EC       H  530   2.243   0.451   3.131
   54EC       O  531   1.647   1.591   2.556
   54EC       C  532   1.638   1.645   2.447
   54EC       O  533   1.709   1.755   2.408
   54EC       C  534   1.652   1.800   2.288
   54EC       C  535   1.589   1.676   2.232
   54EC       O  536   1.552   1.604   2.348
   54EC       H  537   1.577   1.877   2.312
   54EC       H  538   1.727   1.842   2.221
   54EC       H  539   1.660   1.617   2.174
   54EC       H  540   1.501   1.697   2.170
   55EC       O  541   2.151   3.449   1.673
   55EC       C  542   2.049   3.386   1.650
   55EC       O  543   2.039   3.250   1.652
   55EC       C  544   1.914   3.217   1.598
   55EC       C  545   1.833   3.339   1.626
   55EC       O  546   1.929   3.444   1.619
   55EC       H  547   1.926   3.199   1.490
   55EC       H  548   1.872   3.128   1.645
   55EC       H  549   1.789   3.338   1.726
   55EC       H  550   1.753   3.356   1.552
   56EC       O  551   1.107   2.739   3.220
   56EC       C  552   1.069   2.853   3.196
   56EC       O  553   0.984   2.924   3.275
   56EC       C  554   0.947   3.038   3.201
   56EC       C  555   1.063   3.057   3.108
   56EC       O  556   1.107   2.924   3.086
   56EC       H  557   0.854   3.016   3.148
   56EC       H  558   0.932   3.125   3.266
   56EC       H  559   1.144   3.114   3.154
   56EC       H  560   1.035   3.104   3.013
   57EC       O  561   1.235   3.970   3.748
   57EC       C  562   1.123   3.938   3.711
   57EC       O  563   1.094   3.878   3.592
   57EC       C  564   0.955   3.881   3.577
   57EC       C  565   0.906   3.888   3.719
   57EC       O  566   1.009   3.961   3.784
   57EC       H  567   0.928   3.970   3.520
   57EC       H  568   0.918   3.792   3.525
   57EC       H  569   0.898   3.789   3.764
   57EC       H  570   0.810   3.940   3.728
   58EC       O  571   1.720   3.831   0.739
   58EC       C  572   1.803   3.743   0.720
   58EC       O  573   1.828   3.684   0.600
   58EC       C  574   1.909   3.573   0.625
   58EC       C  575   1.978   3.610   0.753
   58EC       O  576   1.881   3.689   0.819
   58EC       H  577   1.845   3.485   0.636
   58EC       H  578   1.980   3.556   0.544
   58EC       H  579   2.068   3.670   0.735
   58EC       H  580   2.005   3.523   0.813
   59EC       O  581   3.897   2.877   2.819
   59EC       C  582   3.880   2.987   2.769
   59EC       O  583   3.970   3.089   2.772
   59EC       C  584   3.903   3.204   2.726
   59EC       C  585   3.795   3.147   2.639
   59EC       O  586   3.766   3.023   2.702
   59EC       H  587   3.863   3.257   2.813
   59EC       H  588   3.970   3.270   2.671
   59EC       H  589   3.830   3.128   2.538
   59EC       H  590   3.706   3.210   2.635
   60EC       O  591   3.427   2.939   0.631
   60EC       C  592   3.513   2.853   0.646
   60EC       O  593   3.597   2.845   0.752
   60EC       C  594   3.695   2.749   0.719
   60EC       C  595   3.624   2.662   0.620
   60EC       O  596   3.536   2.753   0.556
   60EC       H  597   3.781   2.800   0.675
   60EC       H  598   3.727   2.693   0.807
   60EC       H  599   3.564   2.584   0.669
   60EC       H  600   3.691   2.616   0.548
   61EC       O  601   1.622   1.148   1.778
   61EC       C  602   1.706   1.136   1.865
   61EC       O  603   1.744   1.018   1.921
   61EC       C  604   1.823   1.049   2.033
   61EC       C  605   1.878   1.184   1.999
   61EC       O  606   1.774   1.242   1.921
   61EC       H  607   1.758   1.052   2.122
   61EC       H  608   1.901   0.975   2.049
   61EC       H  609   1.968   1.178   1.938
   61EC       H  610   1.898   1.246   2.087
   62EC       O  611   2.613   0.946   1.747
   62EC       C  612   2.716   1.011   1.749
   62EC       O  613   2.841   0.959   1.732
   62EC       C  614   2.933   1.061   1.766
   62EC       C  615   2.854   1.186   1.742
   62EC       O  616   2.721   1.146   1.771
   62EC       H  617   2.960   1.049   1.872
   62EC       H  618   3.023   1.056   1.705
   62EC       H  619   2.860   1.218   1.637
   62EC       H  620   2.885   1.269   1.806
   63EC       O  621   3.667   0.416   0.676
   63EC       C  622   3.546   0.397   0.673
   63EC       O  623   3.453   0.496   0.659
   63EC       C  624   3.328   0.437   0.686
   63EC       C  625   3.351   0.293   0.652
   63EC       O  626   3.487   0.274   0.684
   63EC       H  627   3.304   0.452   0.792
   63EC       H  628   3.249   0.482   0.625
   63EC       H  629   3.336   0.273   0.545
   63EC       H  630   3.287   0.225   0.709
   64EC       O  631   3.553   1.904   2.854
   64EC       C  632   3.628   1.999   2.869
   64EC       O  633   3.589   2.127   2.892
   64EC       C  634   3.703   2.208   2.879
   64EC       C  635   3.815   2.113   2.911
   64EC       O  636   3.765   1.989   2.864
   64EC       H  637   3.708   2.245   2.776
   64EC       H  638   3.700   2.293   2.948
   64EC       H  639   3.833   2.106   3.018
   64EC       H  640   3.908   2.139   2.860
   65EC       O  641   3.114   2.509   1.947
   65EC       C  642   3.039   2.581   1.883
   65EC       O  643   2.933   2.536   1.809
   65EC       C  644   2.888   2.645   1.733
   65EC       C  645   2.932   2.763   1.814
   65EC       O  646   3.051   2.717   1.876
   65EC       H  647   2.938   2.642   1.635
   65EC       H  648   2.780   2.643   1.718
   65EC       H  649   2.859   2.789   1.891
   65EC       H  650   2.952   2.852   1.753
   66EC       O  651   2.200   1.188   0.225
   66EC       C  652   2.276   1.279   0.254
   66EC       O  653   2.410   1.279   0.230
   66EC       C  654   2.464   1.389   0.299
   66EC       C  655   2.348   1.482   0.309
   66EC       O  656   2.237   1.394   0.317
   66EC       H  657   2.498   1.354   0.397
   66EC       H  658   2.548   1.433   0.245
   66EC       H  659   2.337   1.545   0.220
   66EC       H  660   2.352   1.547   0.398
   67EC       O  661   0.278   0.505   3.528
   67EC       C  662   0.304   0.559   3.422
   67EC       O  663   0.405   0.647   3.403
   67EC       C  664   0.386   0.704   3.275
   67EC       C  665   0.309   0.598   3.203
   67EC       O  666   0.233   0.538   3.306
   67EC       H  667   0.329   0.797   3.287
   67EC       H  668   0.481   0.727   3.227
   67EC       H  669   0.375   0.523   3.158
   67EC       H  670   0.244   0.639   3.125
   68EC       O  671   2.155   3.182   2.639
   68EC       C  672   2.171   3.203   2.520
   68EC       O  673   2.150   3.323   2.458
   68EC       C  674   2.157   3.299   2.320
   68EC       C  675   2.243   3.178   2.311
   68EC       O  676   2.213   3.108   2.431
   68EC       H  677   2.055   3.281   2.283
   68EC       H  678   2.199   3.384   2.266
   68EC       H  679   2.350   3.203   2.310
   68EC       H  680   2.221   3.115   2.223
   69EC       O  681   1.292   3.150   0.990
   69EC       C  682   1.339   3.251   1.039
   69EC       O  683   1.456   3.257   1.108
   69EC       C  684   1.461   3.384   1.169
   69EC       C  685   1.374   3.467   1.080
   69EC       O  686   1.277   3.373   1.034
   69EC       H  687   1.420   3.375   1.271
   69EC       H  688   1.563   3.422   1.175
   69EC       H  689   1.428   3.507   0.995
   69EC       H  690   1.324   3.549   1.133
   70EC       O  691   2.685   3.857   0.635
   70EC       C  692   2.631   3.827   0.530
   70EC       O  693   2.628   3.701   0.477
   70EC       C  694   2.579   3.712   0.346
   70EC       C  695   2.498   3.838   0.351
   70EC       O  696   2.567   3.916   0.448
   70EC       H  697   2.665   3.721   0.278
   70EC       H  698   2.520   3.626   0.317
   70EC       H  699   2.396   3.819   0.386
   70EC       H  700   2.494   3.891   0.255
   71EC       O  701   0.551   0.309   1.620
   71EC       C  702   0.655   0.364   1.651
   71EC       O  703   0.742   0.423   1.564
   71EC       C  704   0.859   0.452   1.636
   71EC       C  705   0.809   0.465   1.776
   71EC       O  706   0.701   0.374   1.780
   71EC       H  707   0.929   0.368   1.624
   71EC       H  708   0.906   0.544   1.600
   71EC       H  709   0.772   0.566   1.798
   71EC       H  710   0.885   0.438   1.851
   72EC       O  711   2.512   2.208   1.049
   72EC       C  712   2.501   2.302   0.972
   72EC       O  713   2.393   2.325   0.892
   72EC       C  714   2.430   2.427   0.803
   72EC       C  715   2.536   2.500   0.878
   72EC       O  716   2.597   2.398   0.955
   72EC       H  717   2.468   2.381   0.711
   72EC       H  718   2.345   2.491   0.779
   72EC       H  719   2.495   2.576   0.946
   72EC       H  720   2.610   2.548   0.812
   73EC       O  721   2.188   0.136   0.820
   73EC       C  722   2.069   0.157   0.837
   73EC       O  723   2.017   0.238   0.934
   73EC       C  724   1.879   0.215   0.937
   73EC       C  725   1.850   0.168   0.798
   73EC       O  726   1.970   0.100   0.762
   73EC       H  727   1.857   0.138   1.012
   73EC       H  728   1.824   0.306   0.962
   73EC       H  729   1.834   0.251   0.728
   73EC       H  730   1.764   0.100   0.792
   74EC       O  731   2.376   2.936   2.810
   74EC       C  732   2.336   2.912   2.923
   74EC       O  733   2.402   2.836   3.014
   74EC       C  734   2.312   2.812   3.120
   74EC       C  735   2.219   2.929   3.111
   74EC       O  736   2.217   2.957   2.972
   74EC       H  737   2.261   2.716   3.101
   74EC       H  738   2.363   2.807   3.216
   74EC       H  739   2.257   3.016   3.165
   74EC       H  740   2.118   2.906   3.147
   75EC       O  741   1.681   2.398   0.592
   75EC       C  742   1.731   2.502   0.632
   75EC       O  743   1.862   2.537   0.617
   75EC       C  744   1.884   2.649   0.698
   75EC       C  745   1.748   2.711   0.707
   75EC       O  746   1.661   2.598   0.700
   75EC       H  747   1.920   2.615   0.796
   75EC       H  748   1.957   2.717   0.654
   75EC       H  749   1.727   2.777   0.623
   75EC       H  750   1.732   2.766   0.801
   76EC       O  751   0.981   0.696   2.797
   76EC       C  752   0.866   0.735   2.812
   76EC       O  753   0.807   0.833   2.739
   76EC       C  754   0.685   0.863   2.802
   76EC       C  755   0.653   0.736   2.874
   76EC       O  756   0.781   0.684   2.906
   76EC       H  757   0.702   0.947   2.871
   76EC       H  758   0.608   0.891   2.731
   76EC       H  759   0.600   0.665   2.810
   76EC       H  760   0.594   0.752   2.965
   77EC       O  761   3.188   2.936   0.108
   77EC       C  762   3.156   2.827   0.153
   77EC       O  763   3.192   2.707   0.100
   77EC       C  764   3.116   2.609   0.166
   77EC       C  765   3.085   2.673   0.297
   77EC       O  766   3.078   2.811   0.264
   77EC       H  767   3.025   2.590   0.106
   77EC       H  768   3.171   2.516   0.177
   77EC       H  769   3.165   2.658   0.370
   77EC       H  770   2.990   2.639   0.340
   78EC       O  771   1.095   0.762   3.039
   78EC       C  772   1.196   0.698   3.015
   78EC       O  773   1.314   0.752   2.973
   78EC       C  774   1.396   0.644   2.933
   78EC       C  775   1.342   0.530   3.014
   78EC       O  776   1.205   0.562   3.025
   78EC       H  777   1.384   0.629   2.826
   78EC       H  778   1.501   0.664   2.955
   78EC       H  779   1.387   0.525   3.114
   78EC       H  780   1.356   0.433   2.964
   79EC       O  781   0.531   1.553   2.252
   79EC       C  782   0.596   1.550   2.355
   79EC       O  783   0.656   1.439   2.406
   79EC       C  784   0.698   1.471   2.536
   79EC       C  785   0.715   1.620   2.530
   79EC       O  786   0.616   1.659   2.436
   79EC       H  787   0.620   1.441   2.607
   79EC       H  788   0.791   1.421   2.562
   79EC       H  789   0.813   1.649   2.492
   79EC       H  790   0.697   1.669   2.626
   80EC       O  791   2.518   3.613   3.453
   80EC       C  792   2.475   3.499   3.443
   80EC       O  793   2.552   3.387   3.442
   80EC       C  794   2.469   3.280   3.404
   80EC       C  795   2.333   3.328   3.445
   80EC       O  796   2.342   3.469   3.429
   80EC       H  797   2.477   3.267   3.296
   80EC       H  798   2.497   3.188   3.454
   80EC       H  799   2.312   3.306   3.550
   80EC       H  800   2.253   3.287   3.383
   81EC       O  801   2.930   1.451   1.342
   81EC       C  802   2.928   1.339   1.294
   81EC       O  803   3.001   1.233   1.341
   81EC       C  804   2.990   1.131   1.246
   81EC       C  805   2.860   1.161   1.179
   81EC       O  806   2.853   1.303   1.186
   81EC       H  807   3.075   1.138   1.177
   81EC       H  808   2.990   1.032   1.293
   81EC       H  809   2.775   1.119   1.232
   81EC       H  810   2.857   1.128   1.074
   82EC       O  811   2.510   0.673   1.144
   82EC       C  812   2.607   0.678   1.218
   82EC       O  813   2.687   0.573   1.249
   82EC       C  814   2.770   0.614   1.355
   82EC       C  815   2.775   0.762   1.337
   82EC       O  816   2.648   0.792   1.282
   82EC       H  817   2.722   0.585   1.449
   82EC       H  818   2.868   0.567   1.349
   82EC       H  819   2.853   0.792   1.266
   82EC       H  820   2.790   0.816   1.432
   83EC       O  821   1.954   1.631   0.415
   83EC       C  822   2.018   1.730   0.444
   83EC       O  823   2.150   1.749   0.416
   83EC       C  824   2.192   1.862   0.487
   83EC       C  825   2.065   1.940   0.504
   83EC       O  826   1.966   1.838   0.512
   83EC       H  827   2.234   1.829   0.583
   83EC       H  828   2.268   1.918   0.432
   83EC       H  829   2.044   2.003   0.417
   83EC       H  830   2.064   2.001   0.594
   84EC       O  831   0.646   0.882   0.841
   84EC       C  832   0.549   0.900   0.913
   84EC       O  833   0.541   0.859   1.043
   84EC       C  834   0.407   0.875   1.082
   84EC       C  835   0.358   0.983   0.991
   84EC       O  836   0.434   0.962   0.873
   84EC       H  837   0.354   0.780   1.066
   84EC       H  838   0.399   0.903   1.187
   84EC       H  839   0.381   1.083   1.030
   84EC       H  840   0.251   0.977   0.970
   85EC       O  841   0.105   0.992   1.708
   85EC       C  842   0.151   1.103   1.690
   85EC       O  843   0.259   1.132   1.612
   85EC       C  844   0.293   1.266   1.637
   85EC       C  845   0.164   1.326   1.684
   85EC       O  846   0.100   1.217   1.748
   85EC       H  847   0.370   1.267   1.716
   85EC       H  848   0.332   1.315   1.548
   85EC       H  849   0.102   1.359   1.600
   85EC       H  850   0.178   1.409   1.753
   86DMC      C  851   1.859   2.190   2.527
   86DMC      O  852   1.896   2.119   2.646
   86DMC      C  853   2.029   2.109   2.665
   86DMC      O  854   2.116   2.154   2.591
   86DMC      O  855   2.051   2.040   2.780
   86DMC      C  856   2.188   2.023   2.812
   86DMC      H  857   1.898   2.139   2.438
   86DMC      H  858   1.750   2.193   2.521
   86DMC      H  859   1.896   2.293   2.531
   86DMC      H  860   2.195   1.966   2.906
   86DMC      H  861   2.239   1.965   2.734
   86DMC      H  862   2.237   2.119   2.826
   87DMC      C  863   1.022   1.399   3.059
   87DMC      O  864   0.984   1.286   3.137
   87DMC      C  865   0.870   1.304   3.208
   87DMC      O  866   0.802   1.405   3.210
   87DMC      O  867   0.845   1.190   3.278
   87DMC      C  868   0.727   1.196   3.357
   87DMC      H  869   1.040   1.486   3.123
   87DMC      H  870   1.114   1.375   3.005
   87DMC      H  871   0.945   1.422   2.985
   87DMC      H  872   0.716   1.100   3.410
   87DMC      H  873   0.736   1.275   3.433
   87DMC      H  874   0.639   1.212   3.294
   88DMC      C  875   3.728   2.111   1.678
   88DMC      O  876   3.644   2.199   1.753
   88DMC      C  877   3.517   2.206   1.708
   88DMC      O  878   3.472   2.146   1.611
   88DMC      O  879   3.448   2.292   1.787
   88DMC      C  880   3.312   2.308   1.749
   88DMC      H  881   3.737   2.145   1.574
   88DMC      H  882   3.828   2.112   1.723
   88DMC      H  883   3.690   2.009   1.682
   88DMC      H  884   3.265   2.379   1.818
   88DMC      H  885   3.305   2.350   1.648
   88DMC      H  886   3.259   2.213   1.755
   89DMC      C  887   0.179   1.568   3.399
   89DMC      O  888   0.289   1.542   3.488
   89DMC      C  889   0.395   1.625   3.469
   89DMC      O  890   0.402   1.714   3.386
   89DMC      O  891   0.491   1.591   3.559
   89DMC      C  892   0.608   1.670   3.550
   89DMC      H  893   0.210   1.554   3.295
   89DMC      H  894   0.099   1.497   3.422
   89DMC      H  895   0.141   1.669   3.414
   89DMC      H  896   0.680   1.635   3.625
   89DMC      H  897   0.655   1.659   3.451
   89DMC      H  898   0.586   1.775   3.570
   90DMC      C  899   0.820   2.545   3.824
   90DMC      O  900   0.947   2.611   3.825
   90DMC      C  901   1.026   2.578   3.720
   90DMC      O  902   0.998   2.500   3.631
   90DMC      O  903   1.143   2.647   3.733
   90DMC      C  904   1.236   2.621   3.629
   90DMC      H  905   0.832   2.436   3.829
   90DMC      H  906   0.763   2.578   3.912
   90DMC      H  907   0.763   2.572   3.735
   90DMC      H  908   1.326   2.680   3.648
   90DMC      H  909   1.264   2.515   3.628
   90DMC      H  910   1.195   2.651   3.532
   91DMC      C  911   2.110   1.154   1.039
   91DMC      O  912   2.213   1.063   1.080
   91DMC      C  913   2.336   1.096   1.033
   91DMC      O  914   2.363   1.192   0.962
   91DMC      O  915   2.425   1.004   1.079
   91DMC      C  916   2.558   1.027   1.036
   91DMC      H  917   2.101   1.155   0.930
   91DMC      H  918   2.015   1.119   1.081
   91DMC      H  919   2.130   1.255   1.077
   91DMC      H  920   2.621   0.947   1.077
   91DMC      H  921   2.565   1.022   0.927
   91DMC      H  922   2.595   1.122   1.074
   92DMC      C  923   2.062   1.019   3.615
   92DMC      O  924   2.120   0.966   3.495
   92DMC      C  925   2.109   0.832   3.483
   92DMC      O  926   2.056   0.757   3.564
   92DMC      O  927   2.166   0.795   3.366
   92DMC      C  928   2.162   0.655   3.342
   92DMC      H  929   2.112   0.978   3.703
   92DMC      H  930   2.076   1.127   3.615
   92DMC      H  931   1.955   0.998   3.619
   92DMC      H  932   2.211   0.635   3.246
   92DMC      H  933   2.216   0.600   3.420
   92DMC      H  934   2.058   0.620   3.335
   93DMC      C  935   3.709   1.406   2.578
   93DMC      O  936   3.637   1.518   2.631
   93DMC      C  937   3.575   1.592   2.537
   93DMC      O  938   3.577   1.572   2.416
   93DMC      O  939   3.510   1.695   2.599
   93DMC      C  940   3.441   1.781   2.511
   93DMC      H  941   3.788   1.439   2.510
   93DMC      H  942   3.755   1.352   2.661
   93DMC      H  943   3.641   1.337   2.526
   93DMC      H  944   3.393   1.860   2.570
   93DMC      H  945   3.511   1.829   2.441
   93DMC      H  946   3.363   1.727   2.457
   94DMC      C  947   1.556   1.499   1.648
   94DMC      O  948   1.501   1.623   1.603
   94DMC      C  949   1.479   1.712   1.702
   94DMC      O  950   1.502   1.695   1.821
   94DMC      O  951   1.427   1.825   1.647
   94DMC      C  952   1.400   1.928   1.742
   94DMC      H  953   1.488   1.449   1.718
   94DMC      H  954   1.570   1.434   1.561
   94DMC      H  955   1.654   1.515   1.695
   94DMC      H  956   1.357   2.013   1.688
   94DMC      H  957   1.325   1.893   1.815
   94DMC      H  958   1.491   1.959   1.792
   95DMC      C  959   1.273   1.652   3.460
   95DMC      O  960   1.234   1.632   3.323
   95DMC      C  961   1.327   1.674   3.234
   95DMC      O  962   1.435   1.725   3.261
   95DMC      O  963   1.280   1.649   3.109
   95DMC      C  964   1.368   1.689   3.005
   95DMC      H  965   1.287   1.759   3.481
   95DMC      H  966   1.192   1.615   3.524
   95DMC      H  967   1.363   1.596   3.483
   95DMC      H  968   1.321   1.666   2.909
   95DMC      H  969   1.386   1.797   3.009
   95DMC      H  970   1.462   1.634   3.012
   96DMC      C  971   2.393   1.204   2.801
   96DMC      O  972   2.389   1.188   2.658
   96DMC      C  973   2.274   1.233   2.602
   96DMC      O  974   2.179   1.281   2.661
   96DMC      O  975   2.283   1.213   2.467
   96DMC      C  976   2.168   1.255   2.396
   96DMC      H  977   2.313   1.146   2.848
   96DMC      H  978   2.489   1.166   2.837
   96DMC      H  979   2.385   1.309   2.828
   96DMC      H  980   2.185   1.235   2.289
   96DMC      H  981   2.080   1.198   2.428
   96DMC      H  982   2.152   1.362   2.408
   97DMC      C  983   0.928   0.210   1.882
   97DMC      O  984   1.055   0.276   1.874
   97DMC      C  985   1.131   0.261   1.984
   97DMC      O  986   1.101   0.199   2.085
   97DMC      O  987   1.248   0.328   1.964
   97DMC      C  988   1.338   0.320   2.073
   97DMC      H  989   0.868   0.250   1.965
   97DMC      H  990   0.874   0.228   1.789
   97DMC      H  991   0.941   0.102   1.894
   97DMC      H  992   1.429   0.377   2.047
   97DMC      H  993   1.294   0.365   2.163
   97DMC      H  994   1.367   0.216   2.092
   98DMC      C  995   0.390   2.244   3.204
   98DMC      O  996   0.508   2.238   3.286
   98DMC      C  997   0.522   2.122   3.353
   98DMC      O  998   0.445   2.027   3.350
   98DMC      O  999   0.637   2.129   3.427
   98DMC      C 1000   0.663   2.012   3.503
   98DMC      H 1001   0.300   2.234   3.266
   98DMC      H 1002   0.388   2.341   3.154
   98DMC      H 1003   0.393   2.166   3.128
   98DMC      H 1004   0.757   2.028   3.558
   98DMC      H 1005   0.583   1.995   3.576
   98DMC      H 1006   0.676   1.926   3.438
   99DMC      C 1007   1.671   2.270   1.220
   99DMC      O 1008   1.653   2.398   1.158
   99DMC      C 1009   1.766   2.472   1.151
   99DMC      O 1010   1.876   2.439   1.193
   99DMC      O 1011   1.736   2.589   1.090
   99DMC      C 1012   1.847   2.677   1.076
   99DMC      H 1013   1.704   2.282   1.324
   99DMC      H 1014   1.575   2.218   1.221
   99DMC      H 1015   1.742   2.209   1.164
   99DMC      H 1016   1.812   2.769   1.027
   99DMC      H 1017   1.886   2.705   1.175
   99DMC      H 1018   1.924   2.631   1.015
  100DMC      C 1019   0.384   2.299   0.609
  100DMC      O 1020   0.507   2.295   0.537
  100DMC      C 1021   0.555   2.417   0.502
  100DMC      O 1022   0.501   2.524   0.526
  100DMC      O 1023   0.671   2.399   0.434
  100DMC      C 1024   0.731   2.521   0.391
  100DMC      H 1025   0.305   2.345   0.549
  100DMC      H 1026   0.355   2.197   0.633
  100DMC      H 1027   0.397   2.354   0.703
  100DMC      H 1028   0.824   2.496   0.337
  100DMC      H 1029   0.665   2.574   0.322
  100DMC      H 1030   0.757   2.583   0.477
  101DMC      C 1031   2.669   0.563   0.428
  101DMC      O 1032   2.781   0.638   0.379
  101DMC      C 1033   2.860   0.687   0.477
  101DMC      O 1034   2.843   0.673   0.598
  101DMC      O 1035   2.962   0.756   0.419
  101DMC      C 1036   3.053   0.813   0.511
  101DMC      H 1037   2.604   0.626   0.490
  101DMC      H 1038   2.611   0.528   0.342
  101DMC      H 1039   2.703   0.476   0.485
  101DMC      H 1040   3.131   0.866   0.455
  101DMC      H 1041   3.002   0.886   0.576
  101DMC      H 1042   3.101   0.736   0.571
  102DMC      C 1043   2.040   0.221   1.473
  102DMC      O 1044   1.941   0.292   1.398
  102DMC      C 1045   1.992   0.363   1.295
  102DMC      O 1046   2.110   0.370   1.264
  102DMC      O 1047   1.888   0.425   1.231
  102DMC      C 1048   1.928   0.504   1.120
  102DMC      H 1049   2.112   0.290   1.518
  102DMC      H 1050   1.990   0.166   1.554
  102DMC      H 1051   2.092   0.148   1.410
  102DMC      H 1052   1.839   0.550   1.077
  102DMC      H 1053   1.996   0.584   1.153
  102DMC      H 1054   1.976   0.442   1.044
  103DMC      C 1055   0.199   0.707   1.483
  103DMC      O 1056   0.204   0.839   1.429
  103DMC      C 1057   0.322   0.902   1.448
  103DMC      O 1058   0.419   0.856   1.507
  103DMC      O 1059   0.314   1.025   1.392
  103DMC      C 1060   0.433   1.102   1.406
  103DMC      H 1061   0.213   0.709   1.592
  103DMC      H 1062   0.100   0.665   1.462
  103DMC      H 1063   0.274   0.643   1.437
  103DMC      H 1064   0.416   1.200   1.358
  103DMC      H 1065   0.454   1.120   1.512
  103DMC      H 1066   0.517   1.053   1.357
  104DMC      C 1067   3.284   2.664   1.092
  104DMC      O 1068   3.414   2.690   1.038
  104DMC      C 1069   3.515   2.639   1.112
  104DMC      O 1070   3.503   2.576   1.217
  104DMC      O 1071   3.633   2.669   1.051
  104DMC      C 1072   3.747   2.621   1.120
  104DMC      H 1073   3.273   2.709   1.192
  104DMC      H 1074   3.210   2.709   1.026
  104DMC      H 1075   3.265   2.557   1.097
  104DMC      H 1076   3.836   2.652   1.063
  104DMC      H 1077   3.754   2.666   1.220
  104DMC      H 1078   3.745   2.512   1.125
  105DMC      C 1079   2.133   1.415   1.964
  105DMC      O 1080   2.112   1.544   1.905
  105DMC      C 1081   1.986   1.565   1.862
  105DMC      O 1082   1.894   1.485   1.869
  105DMC      O 1083   1.979   1.690   1.809
  105DMC      C 1084   1.851   1.724   1.759
  105DMC      H 1085   2.113   1.336   1.891
  105DMC      H 1086   2.237   1.408   1.996
  105DMC      H 1087   2.069   1.403   2.052
  105DMC      H 1088   1.856   1.826   1.718
  105DMC      H 1089   1.822   1.656   1.677
  105DMC      H 1090   1.777   1.723   1.839
  106DMC      C 1091   2.892   2.403   0.809
  106DMC      O 1092   3.023   2.443   0.852
  106DMC      C 1093   3.068   2.555   0.791
  106DMC      O 1094   3.008   2.620   0.706
  106DMC      O 1095   3.191   2.584   0.841
  106DMC      C 1096   3.251   2.699   0.784
  106DMC      H 1097   2.892   2.380   0.702
  106DMC      H 1098   2.864   2.312   0.864
  106DMC      H 1099   2.818   2.480   0.831
  106DMC      H 1100   3.350   2.713   0.829
  106DMC      H 1101   3.265   2.686   0.676
  106DMC      H 1102   3.190   2.788   0.805
  107DMC      C 1103   2.772   3.459   2.703
  107DMC      O 1104   2.670   3.535   2.635
  107DMC      C 1105   2.669   3.666   2.669
  107DMC      O 1106   2.743   3.720   2.750
  107DMC      O 1107   2.570   3.727   2.599
  107DMC      C 1108   2.557   3.866   2.626
  107DMC      H 1109   2.755   3.461   2.811
  107DMC      H 1110   2.765   3.355   2.668
  107DMC      H 1111   2.871   3.497   2.678
  107DMC      H 1112   2.475   3.905   2.565
  107DMC      H 1113   2.532   3.882   2.732
  107DMC      H 1114   2.649   3.919   2.599
  108DMC      C 1115   3.558   2.015   1.251
  108DMC      O 1116   3.449   2.097   1.295
  108DMC      C 1117   3.344   2.099   1.209
  108DMC      O 1118   3.337   2.040   1.103
  108DMC      O 1119   3.248   2.180   1.262
  108DMC      C 1120   3.132   2.191   1.181
  108DMC      H 1121   3.598   2.052   1.156
  108DMC      H 1122   3.637   2.019   1.326
  108DMC      H 1123   3.526   1.911   1.240
  108DMC      H 1124   3.062   2.258   1.232
  108DMC      H 1125   3.157   2.236   1.084
  108DMC      H 1126   3.085   2.094   1.168
  109DMC      C 1127   1.767   0.233   3.248
  109DMC      O 1128   1.636   0.286   3.226
  109DMC      C 1129   1.559   0.209   3.145
  109DMC      O 1130   1.593   0.104   3.093
  109DMC      O 1131   1.438   0.269   3.132
  109DMC      C 1132   1.348   0.199   3.049
  109DMC      H 1133   1.823   0.225   3.154
  109DMC      H 1134   1.821   0.301   3.315
  109DMC      H 1135   1.762   0.135   3.297
  109DMC      H 1136   1.254   0.256   3.045
  109DMC      H 1137   1.387   0.191   2.947
  109DMC      H 1138   1.326   0.100   3.090
  110DMC      C 1139   1.888   2.582   2.574
  110DMC      O 1140   1.772   2.640   2.513
  110DMC      C 1141   1.711   2.733   2.590
  110DMC      O 1142   1.746   2.768   2.702
  110DMC      O 1143   1.604   2.781   2.522
  110DMC      C 1144   1.530   2.880   2.592
  110DMC      H 1145   1.861   2.530   2.666
  110DMC      H 1146   1.930   2.508   2.504
  110DMC      H 1147   1.964   2.658   2.593
  110DMC      H 1148   1.446   2.912   2.529
  110DMC      H 1149   1.490   2.839   2.686
  110DMC      H 1150   1.593   2.967   2.612
  111DMC      C 1151   0.811   0.800   3.288
  111DMC      O 1152   0.939   0.811   3.351
  111DMC      C 1153   1.033   0.728   3.299
  111DMC      O 1154   1.015   0.648   3.209
  111DMC      O 1155   1.149   0.748   3.367
  111DMC      C 1156   1.256   0.666   3.323
  111DMC      H 1157   0.770   0.699   3.300
  111DMC      H 1158   0.743   0.871   3.335
  111DMC      H 1159   0.818   0.825   3.182
  111DMC      H 1160   1.344   0.690   3.383
  111DMC      H 1161   1.232   0.560   3.338
  111DMC      H 1162   1.279   0.686   3.218
  112DMC      C 1163   3.900   3.557   3.814
  112DMC      O 1164   3.770   3.583   3.866
  112DMC      C 1165   3.674   3.500   3.819
  112DMC      O 1166   3.691   3.410   3.738
  112DMC      O 1167   3.556   3.534   3.876
  112DMC      C 1168   3.446   3.454   3.834
  112DMC      H 1169   3.901   3.570   3.705
  112DMC      H 1170   3.970   3.629   3.858
  112DMC      H 1171   3.933   3.456   3.840
  112DMC      H 1172   3.356   3.490   3.886
  112DMC      H 1173   3.430   3.464   3.726
  112DMC      H 1174   3.462   3.350   3.862
  113DMC      C 1175   2.660   1.832   2.068
  113DMC      O 1176   2.618   1.958   2.014
  113DMC      C 1177   2.499   1.952   1.950
  113DMC      O 1178   2.430   1.852   1.934
  113DMC      O 1179   2.469   2.076   1.904
  113DMC      C 1180   2.346   2.084   1.833
  113DMC      H 1181   2.674   1.758   1.988
  113DMC      H 1182   2.756   1.847   2.118
  113DMC      H 1183   2.588   1.795   2.142
  113DMC      H 1184   2.332   2.188   1.800
  113DMC      H 1185   2.349   2.020   1.744
  113DMC      H 1186   2.263   2.057   1.898
  114DMC      C 1187   3.422   1.328   2.005
  114DMC      O 1188   3.521   1.427   1.976
  114DMC      C 1189   3.542   1.447   1.844
  114DMC      O 1190   3.486   1.388   1.753
  114DMC      O 1191   3.637   1.543   1.830
  114DMC      C 1192   3.669   1.573   1.695
  114DMC      H 1193   3.453   1.230   1.966
  114DMC      H 1194   3.412   1.319   2.114
  114DMC      H 1195   3.325   1.356   1.964
  114DMC      H 1196   3.747   1.651   1.695
  114DMC      H 1197   3.710   1.484   1.645
  114DMC      H 1198   3.581   1.611   1.642
  115DMC      C 1199   3.000   2.349   3.095
  115DMC      O 1200   3.008   2.430   2.978
  115DMC      C 1201   3.047   2.557   3.002
  115DMC      O 1202   3.073   2.605   3.111
  115DMC      O 1203   3.052   2.624   2.883
  115DMC      C 1204   3.091   2.759   2.895
  115DMC      H 1205   2.926   2.389   3.165
  115DMC      H 1206   2.968   2.248   3.066
  115DMC      H 1207   3.097   2.341   3.144
  115DMC      H 1208   3.091   2.804   2.794
  115DMC      H 1209   3.019   2.815   2.957
  115DMC      H 1210   3.192   2.767   2.936
  116DMC      C 1211   2.312   3.437   0.924
  116DMC      O 1212   2.246   3.552   0.869
  116DMC      C 1213   2.278   3.667   0.932
  116DMC      O 1214   2.353   3.679   1.027
  116DMC      O 1215   2.210   3.768   0.871
  116DMC      C 1216   2.234   3.896   0.928
  116DMC      H 1217   2.283   3.422   1.029
  116DMC      H 1218   2.280   3.349   0.867
  116DMC      H 1219   2.420   3.446   0.916
  116DMC      H 1220   2.175   3.970   0.872
  116DMC      H 1221   2.202   3.898   1.032
  116DMC      H 1222   2.340   3.923   0.919
  117DMC      C 1223   2.240   1.912   2.200
  117DMC      O 1224   2.212   2.021   2.111
  117DMC      C 1225   2.290   2.129   2.131
  117DMC      O 1226   2.377   2.141   2.216
  117DMC      O 1227   2.254   2.224   2.041
  117DMC      C 1228   2.329   2.345   2.051
  117DMC      H 1229   2.222   1.942   2.304
  117DMC      H 1230   2.173   1.829   2.176
  117DMC      H 1231   2.343   1.878   2.188
  117DMC      H 1232   2.292   2.415   1.975
  117DMC      H 1233   2.313   2.391   2.150
  117DMC      H 1234   2.435   2.326   2.033
  118DMC      C 1235   1.363   2.616   2.441
  118DMC      O 1236   1.392   2.534   2.555
  118DMC      C 1237   1.406   2.403   2.526
  118DMC      O 1238   1.396   2.352   2.416
  118DMC      O 1239   1.433   2.337   2.642
  118DMC      C 1240   1.450   2.197   2.626
  118DMC      H 1241   1.269   2.585   2.395
  118DMC      H 1242   1.354   2.719   2.474
  118DMC      H 1243   1.445   2.610   2.368
  118DMC      H 1244   1.471   2.153   2.724
  118DMC      H 1245   1.358   2.151   2.587
  118DMC      H 1246   1.534   2.175   2.560
  119DMC      C 1247   1.025   0.941   3.921
  119DMC      O 1248   0.980   0.812   3.964
  119DMC      C 1249   0.868   0.769   3.902
  119DMC      O 1250   0.805   0.831   3.817
  119DMC      O 1251   0.836   0.646   3.950
  119DMC      C 1252   0.719   0.591   3.893
  119DMC      H 1253   0.949   1.017   3.943
  119DMC      H 1254   1.116   0.966   3.976
  119DMC      H 1255   1.048   0.940   3.814
  119DMC      H 1256   0.702   0.492   3.939
  119DMC      H 1257   0.631   0.654   3.915
  119DMC      H 1258   0.731   0.577   3.786
  120DMC      C 1259   0.469   1.843   2.599
  120DMC      O 1260   0.436   1.734   2.686
  120DMC      C 1261   0.303   1.714   2.702
  120DMC      O 1262   0.215   1.780   2.649
  120DMC      O 1263   0.286   1.609   2.786
  120DMC      C 1264   0.150   1.578   2.811
  120DMC      H 1265   0.429   1.937   2.638
  120DMC      H 1266   0.578   1.850   2.592
  120DMC      H 1267   0.430   1.824   2.498
  120DMC      H 1268   0.146   1.493   2.881
  120DMC      H 1269   0.099   1.663   2.859
  120DMC      H 1270   0.099   1.550   2.719
  121DMC      C 1271   3.755   2.109   3.828
  121DMC      O 1272   3.812   1.988   3.777
  121DMC      C 1273   3.792   1.880   3.856
  121DMC      O 1274   3.732   1.880   3.963
  121DMC      O 1275   3.851   1.773   3.798
  121DMC      C 1276   3.837   1.652   3.872
  121DMC      H 1277   3.799   2.135   3.924
  121DMC      H 1278   3.776   2.189   3.757
  121DMC      H 1279   3.646   2.099   3.837
  121DMC      H 1280   3.888   1.572   3.817
  121DMC      H 1281   3.886   1.662   3.970
  121DMC      H 1282   3.732   1.626   3.883
  122DMC      C 1283   0.902   1.170   2.396
  122DMC      O 1284   0.924   1.035   2.353
  122DMC      C 1285   0.871   0.942   2.435
  122DMC      O 1286   0.809   0.964   2.538
  122DMC      O 1287   0.898   0.819   2.383
  122DMC      C 1288   0.847   0.712   2.461
  122DMC      H 1289   0.948   1.187   2.494
  122DMC      H 1290   0.948   1.238   2.324
  122DMC      H 1291   0.795   1.192   2.401
  122DMC      H 1292   0.875   0.618   2.411
  122DMC      H 1293   0.893   0.712   2.561
  122DMC      H 1294   0.739   0.717   2.467
  123DMC      C 1295   1.964   0.429   2.067
  123DMC      O 1296   1.823   0.410   2.063
  123DMC      C 1297   1.779   0.344   1.953
  123DMC      O 1298   1.849   0.304   1.861
  123DMC      O 1299   1.644   0.331   1.962
  123DMC      C 1300   1.586   0.264   1.852
  123DMC      H 1301   1.997   0.490   1.982
  123DMC      H 1302   1.990   0.483   2.159
  123DMC      H 1303   2.017   0.334   2.067
  123DMC      H 1304   1.477   0.260   1.868
  123DMC      H 1305   1.604   0.320   1.758
  123DMC      H 1306   1.624   0.162   1.844
  124DMC      C 1307   3.122   1.531   0.579
  124DMC      O 1308   3.017   1.525   0.677
  124DMC      C 1309   2.898   1.487   0.627
  124DMC      O 1310   2.874   1.460   0.510
  124DMC      O 1311   2.808   1.484   0.729
  124DMC      C 1312   2.677   1.446   0.689
  124DMC      H 1313   3.098   1.605   0.502
  124DMC      H 1314   3.214   1.562   0.629
  124DMC      H 1315   3.138   1.433   0.535
  124DMC      H 1316   2.612   1.448   0.778
  124DMC      H 1317   2.636   1.517   0.616
  124DMC      H 1318   2.677   1.345   0.649
  125DMC      C 1319   2.915   3.270   3.555
  125DMC      O 1320   2.931   3.411   3.578
  125DMC      C 1321   3.040   3.441   3.653
  125DMC      O 1322   3.119   3.361   3.700
  125DMC      O 1323   3.045   3.576   3.668
  125DMC      C 1324   3.155   3.621   3.745
  125DMC      H 1325   2.901   3.217   3.650
  125DMC      H 1326   2.825   3.256   3.494
  125DMC      H 1327   3.000   3.230   3.501
  125DMC      H 1328   3.150   3.731   3.751
  125DMC      H 1329   3.149   3.581   3.847
  125DMC      H 1330   3.249   3.594   3.698
  126DMC      C 1331   1.900   1.493   2.296
  126DMC      O 1332   1.823   1.379   2.254
  126DMC      C 1333   1.721   1.348   2.338
  126DMC      O 1334   1.692   1.407   2.440
  126DMC      O 1335   1.657   1.239   2.287
  126DMC      C 1336   1.547   1.196   2.366
  126DMC      H 1337   1.946   1.474   2.394
  126DMC      H 1338   1.979   1.509   2.223
  126DMC      H 1339   1.837   1.582   2.300
  126DMC      H 1340   1.502   1.108   2.317
  126DMC      H 1341   1.580   1.166   2.466
  126DMC      H 1342   1.471   1.274   2.372
  127DMC      C 1343   2.259   3.113   1.024
  127DMC      O 1344   2.172   3.227   1.021
  127DMC      C 1345   2.065   3.212   0.941
  127DMC      O 1346   2.039   3.113   0.873
  127DMC      O 1347   1.991   3.326   0.947
  127DMC      C 1348   1.874   3.323   0.866
  127DMC      H 1349   2.300   3.093   0.924
  127DMC      H 1350   2.342   3.134   1.092
  127DMC      H 1351   2.206   3.025   1.061
  127DMC      H 1352   1.822   3.419   0.878
  127DMC      H 1353   1.901   3.312   0.760
  127DMC      H 1354   1.807   3.243   0.898
  128DMC      C 1355   0.299   2.696   1.312
  128DMC      O 1356   0.402   2.675   1.409
  128DMC      C 1357   0.519   2.738   1.380
  128DMC      O 1358   0.540   2.807   1.281
  128DMC      O 1359   0.607   2.711   1.479
  128DMC      C 1360   0.734   2.771   1.460
  128DMC      H 1361   0.330   2.657   1.214
  128DMC      H 1362   0.210   2.642   1.344
  128DMC      H 1363   0.274   2.802   1.304
  128DMC      H 1364   0.799   2.743   1.545
  128DMC      H 1365   0.782   2.734   1.368
  128DMC      H 1366   0.726   2.880   1.458
  129DMC      C 1367   1.275   2.613   0.826
  129DMC      O 1368   1.202   2.731   0.792
  129DMC      C 1369   1.233   2.782   0.670
  129DMC      O 1370   1.315   2.736   0.592
  129DMC      O 1371   1.157   2.893   0.649
  129DMC      C 1372   1.180   2.955   0.524
  129DMC      H 1373   1.383   2.634   0.829
  129DMC      H 1374   1.243   2.580   0.925
  129DMC      H 1375   1.254   2.533   0.755
  129DMC      H 1376   1.115   3.044   0.518
  129DMC      H 1377   1.284   2.990   0.517
  129DMC      H 1378   1.156   2.888   0.442
  130DMC      C 1379   0.487   2.397   2.143
  130DMC      O 1380   0.501   2.537   2.173
  130DMC      C 1381   0.432   2.618   2.090
  130DMC      O 1382   0.364   2.582   1.995
  130DMC      O 1383   0.452   2.746   2.129
  130DMC      C 1384   0.386   2.842   2.049
  130DMC      H 1385   0.526   2.376   2.043
  130DMC      H 1386   0.546   2.340   2.216
  130DMC      H 1387   0.383   2.366   2.150
  130DMC      H 1388   0.409   2.942   2.088
  130DMC      H 1389   0.422   2.838   1.945
  130DMC      H 1390   0.278   2.827   2.053
  131DMC      C 1391   1.277   3.175   2.406
  131DMC      O 1392   1.289   3.309   2.356
  131DMC      C 1393   1.397   3.328   2.277
  131DMC      O 1394   1.481   3.244   2.248
  131DMC      O 1395   1.397   3.458   2.236
  131DMC      C 1396   1.507   3.491   2.152
  131DMC      H 1397   1.364   3.149   2.468
  131DMC      H 1398   1.187   3.170   2.468
  131DMC      H 1399   1.267   3.104   2.324
  131DMC      H 1400   1.498   3.597   2.125
  131DMC      H 1401   1.602   3.477   2.205
  131DMC      H 1402   1.505   3.431   2.060
  132DMC      C 1403   3.150   0.734   2.485
  132DMC      O 1404   3.219   0.617   2.533
  132DMC      C 1405   3.346   0.608   2.489
  132DMC      O 1406   3.403   0.687   2.415
  132DMC      O 1407   3.401   0.494   2.541
  132DMC      C 1408   3.535   0.472   2.502
  132DMC      H 1409   3.143   0.733   2.376
  132DMC      H 1410   3.049   0.733   2.526
  132DMC      H 1411   3.200   0.825   2.519
  132DMC      H 1412   3.569   0.378   2.549
  132DMC      H 1413   3.542   0.460   2.393
  132DMC      H 1414   3.599   0.553   2.537
  133DMC      C 1415   0.642   2.331   0.844
  133DMC      O 1416   0.650   2.423   0.734
  133DMC      C 1417   0.632   2.552   0.770
  133DMC      O 1418   0.609   2.592   0.884
  133DMC      O 1419   0.642   2.629   0.659
  133DMC      C 1420   0.624   2.768   0.683
  133DMC      H 1421   0.543   2.334   0.890
  133DMC      H 1422   0.658   2.230   0.805
  133DMC      H 1423   0.719   2.352   0.918
  133DMC      H 1424   0.634   2.821   0.587
  133DMC      H 1425   0.524   2.787   0.723
  133DMC      H 1426   0.701   2.805   0.751
  134DMC      C 1427   2.401   0.347   1.098
  134DMC      O 1428   2.300   0.445   1.073
  134DMC      C 1429   2.265   0.455   0.942
  134DMC      O 1430   2.311   0.389   0.850
  134DMC      O 1431   2.169   0.551   0.932
  134DMC      C 1432   2.123   0.571   0.799
  134DMC      H 1433   2.494   0.371   1.044
  134DMC      H 1434   2.423   0.346   1.205
  134DMC      H 1435   2.366   0.247   1.069
  134DMC      H 1436   2.047   0.651   0.801
  134DMC      H 1437   2.205   0.605   0.734
  134DMC      H 1438   2.077   0.480   0.760
  135DMC      C 1439   1.507   1.793   0.982
  135DMC      O 1440   1.477   1.665   0.927
  135DMC      C 1441   1.376   1.601   0.990
  135DMC      O 1442   1.314   1.643   1.087
  135DMC      O 1443   1.356   1.481   0.929
  135DMC      C 1444   1.253   1.403   0.986
  135DMC      H 1445   1.540   1.784   1.086
  135DMC      H 1446   1.589   1.837   0.924
  135DMC      H 1447   1.421   1.860   0.975
  135DMC      H 1448   1.245   1.309   0.930
  135DMC      H 1449   1.276   1.379   1.091
  135DMC      H 1450   1.157   1.455   0.979
  136DMC      C 1451   3.600   3.756   2.476
  136DMC      O 1452   3.543   3.701   2.596
  136DMC      C 1453   3.512   3.795   2.689
  136DMC      O 1454   3.529   3.915   2.678
  136DMC      O 1455   3.458   3.731   2.796
  136DMC      C 1456   3.422   3.818   2.902
  136DMC      H 1457   3.694   3.807   2.498
  136DMC      H 1458   3.621   3.673   2.407
  136DMC      H 1459   3.529   3.824   2.427
  136DMC      H 1460   3.381   3.758   2.984
  136DMC      H 1461   3.510   3.872   2.940
  136DMC      H 1462   3.345   3.889   2.869
  137DMC      C 1463   3.033   1.114   0.222
  137DMC      O 1464   3.169   1.075   0.246
  137DMC      C 1465   3.187   0.941   0.250
  137DMC      O 1466   3.101   0.856   0.237
  137DMC      O 1467   3.319   0.918   0.273
  137DMC      C 1468   3.352   0.780   0.280
  137DMC      H 1469   2.968   1.078   0.303
  137DMC      H 1470   3.028   1.223   0.220
  137DMC      H 1471   2.998   1.076   0.126
  137DMC      H 1472   3.460   0.771   0.299
  137DMC      H 1473   3.299   0.732   0.364
  137DMC      H 1474   3.330   0.730   0.186
  138DMC      C 1475   2.155   2.755   1.372
  138DMC      O 1476   2.193   2.629   1.316
  138DMC      C 1477   2.150   2.523   1.387
  138DMC      O 1478   2.084   2.527   1.491
  138DMC      O 1479   2.192   2.410   1.325
  138DMC      C 1480   2.153   2.290   1.390
  138DMC      H 1481   2.197   2.768   1.473
  138DMC      H 1482   2.194   2.835   1.308
  138DMC      H 1483   2.046   2.765   1.376
  138DMC      H 1484   2.192   2.205   1.332
  138DMC      H 1485   2.196   2.285   1.491
  138DMC      H 1486   2.044   2.282   1.394
  139DMC      C 1487   3.745   3.192   0.684
  139DMC      O 1488   3.659   3.234   0.791
  139DMC      C 1489   3.722   3.309   0.884
  139DMC      O 1490   3.840   3.340   0.884
  139DMC      O 1491   3.631   3.343   0.980
  139DMC      C 1492   3.685   3.422   1.085
  139DMC      H 1493   3.826   3.129   0.722
  139DMC      H 1494   3.685   3.133   0.614
  139DMC      H 1495   3.786   3.278   0.631
  139DMC      H 1496   3.604   3.443   1.156
  139DMC      H 1497   3.763   3.367   1.138
  139DMC      H 1498   3.723   3.517   1.046
  140DMC      C 1499   2.251   2.929   3.502
  140DMC      O 1500   2.164   3.000   3.591
  140DMC      C 1501   2.094   3.099   3.532
  140DMC      O 1502   2.100   3.132   3.414
  140DMC      O 1503   2.015   3.158   3.626
  140DMC      C 1504   1.936   3.265   3.577
  140DMC      H 1505   2.326   2.997   3.460
  140DMC      H 1506   2.302   2.851   3.558
  140DMC      H 1507   2.193   2.882   3.422
  140DMC      H 1508   1.878   3.306   3.661
  140DMC      H 1509   2.000   3.346   3.539
  140DMC      H 1510   1.868   3.230   3.500
  141DMC      C 1511   1.997   2.062   1.506
  141DMC      O 1512   1.979   1.936   1.572
  141DMC      C 1513   2.029   1.831   1.503
  141DMC      O 1514   2.084   1.836   1.394
  141DMC      O 1515   2.007   1.718   1.575
  141DMC      C 1516   2.054   1.599   1.513
  141DMC      H 1517   1.945   2.063   1.410
  141DMC      H 1518   1.954   2.140   1.569
  141DMC      H 1519   2.103   2.083   1.492
  141DMC      H 1520   2.030   1.515   1.579
  141DMC      H 1521   2.003   1.583   1.417
  141DMC      H 1522   2.162   1.604   1.500
  142DMC      C 1523   3.169   1.022   0.957
  142DMC      O 1524   3.032   1.027   0.917
  142DMC      C 1525   3.012   1.084   0.796
  142DMC      O 1526   3.099   1.130   0.723
  142DMC      O 1527   2.879   1.082   0.769
  142DMC      C 1528   2.845   1.139   0.644
  142DMC      H 1529   3.210   1.123   0.965
  142DMC      H 1530   3.175   0.974   1.055
  142DMC      H 1531   3.228   0.963   0.887
  142DMC      H 1532   2.736   1.133   0.632
  142DMC      H 1533   2.873   1.245   0.641
  142DMC      H 1534   2.892   1.084   0.562
  143DMC      C 1535   3.009   2.484   3.422
  143DMC      O 1536   3.117   2.446   3.336
  143DMC      C 1537   3.220   2.387   3.402
  143DMC      O 1538   3.226   2.367   3.522
  143DMC      O 1539   3.316   2.356   3.311
  143DMC      C 1540   3.431   2.294   3.367
  143DMC      H 1541   3.041   2.557   3.496
  143DMC      H 1542   2.931   2.530   3.360
  143DMC      H 1543   2.966   2.396   3.471
  143DMC      H 1544   3.502   2.273   3.286
  143DMC      H 1545   3.479   2.361   3.439
  143DMC      H 1546   3.404   2.199   3.415
  144DMC      C 1547   3.740   1.559   1.035
  144DMC      O 1548   3.716   1.493   1.160
  144DMC      C 1549   3.828   1.468   1.231
  144DMC      O 1550   3.943   1.494   1.196
  144DMC      O 1551   3.793   1.407   1.347
  144DMC      C 1552   3.903   1.374   1.430
  144DMC      H 1553   3.802   1.496   0.970
  144DMC      H 1554   3.644   1.575   0.986
  144DMC      H 1555   3.788   1.656   1.050
  144DMC      H 1556   3.864   1.324   1.520
  144DMC      H 1557   3.970   1.303   1.380
  144DMC      H 1558   3.956   1.464   1.460
  145DMC      C 1559   0.907   1.263   1.544
  145DMC      O 1560   1.025   1.227   1.469
  145DMC      C 1561   1.004   1.220   1.336
  145DMC      O 1562   0.898   1.238   1.278
  145DMC      O 1563   1.122   1.186   1.277
  145DMC      C 1564   1.115   1.174   1.136
  145DMC      H 1565   0.829   1.187   1.530
  145DMC      H 1566   0.933   1.267   1.650
  145DMC      H 1567   0.870   1.361   1.513
  145DMC      H 1568   1.214   1.146   1.098
  145DMC      H 1569   1.044   1.094   1.108
  145DMC      H 1570   1.086   1.269   1.091
  146DMC      C 1571   2.302   3.121   1.376
  146DMC      O 1572   2.415   3.201   1.338
  146DMC      C 1573   2.516   3.197   1.428
  146DMC      O 1574   2.518   3.134   1.532
  146DMC      O 1575   2.617   3.276   1.381
  146DMC      C 1576   2.730   3.281   1.467
  146DMC      H 1577   2.259   3.155   1.470
  146DMC      H 1578   2.226   3.130   1.298
  146DMC      H 1579   2.331   3.015   1.383
  146DMC      H 1580   2.804   3.348   1.421
  146DMC      H 1581   2.702   3.323   1.564
  146DMC      H 1582   2.774   3.182   1.478
  147DMC      C 1583   1.686   3.235   1.307
  147DMC      O 1584   1.767   3.300   1.208
  147DMC      C 1585   1.866   3.375   1.259
  147DMC      O 1586   1.890   3.392   1.378
  147DMC      O 1587   1.935   3.430   1.155
  147DMC      C 1588   2.043   3.513   1.196
  147DMC      H 1589   1.637   3.309   1.371
  147DMC      H 1590   1.609   3.177   1.256
  147DMC      H 1591   1.746   3.167   1.368
  147DMC      H 1592   2.091   3.553   1.106
  147DMC      H 1593   2.006   3.598   1.255
  147DMC      H 1594   2.117   3.455   1.252
  148DMC      C 1595   2.050   3.688   0.193
  148DMC      O 1596   1.922   3.630   0.164
  148DMC      C 1597   1.840   3.623   0.271
  148DMC      O 1598   1.867   3.658   0.385
  148DMC      O 1599   1.722   3.567   0.232
  148DMC      C 1600   1.627   3.553   0.336
  148DMC      H 1601   2.104   3.627   0.266
  148DMC      H 1602   2.108   3.690   0.100
  148DMC      H 1603   2.039   3.790   0.229
  148DMC      H 1604   1.537   3.507   0.294
  148DMC      H 1605   1.666   3.486   0.414
  148DMC      H 1606   1.601   3.650   0.377
  149DMC      C 1607   0.586   1.011   3.127
  149DMC      O 1608   0.494   0.927   3.054
  149DMC      C 1609   0.366   0.940   3.095
  149DMC      O 1610   0.325   1.013   3.184
  149DMC      O 1611   0.289   0.856   3.019
  149DMC      C 1612   0.151   0.860   3.052
  149DMC      H 1613   0.585   0.985   3.233
  149DMC      H 1614   0.686   0.994   3.087
  149DMC      H 1615   0.561   1.116   3.113
  149DMC      H 1616   0.099   0.789   2.986
  149DMC      H 1617   0.135   0.828   3.156
  149DMC      H 1618   0.110   0.960   3.035
  150DMC      C 1619   3.050   1.693   3.175
  150DMC      O 1620   3.074   1.559   3.221
  150DMC      C 1621   3.175   1.497   3.157
  150DMC      O 1622   3.244   1.545   3.067
  150DMC      O 1623   3.188   1.372   3.209
  150DMC      C 1624   3.292   1.296   3.149
  150DMC      H 1625   3.022   1.694   3.069
  150DMC      H 1626   2.967   1.735   3.233
  150DMC      H 1627   3.138   1.756   3.192
  150DMC      H 1628   3.293   1.197   3.197
  150DMC      H 1629   3.272   1.281   3.042
  150DMC      H 1630   3.389   1.344   3.165
  151DMC      C 1631   1.820   3.570   2.287
  151DMC      O 1632   1.774   3.558   2.422
  151DMC      C 1633   1.852   3.477   2.499
  151DMC      O 1634   1.952   3.418   2.462
  151DMC      O 1635   1.799   3.474   2.624
  151DMC      C 1636   1.871   3.392   2.715
  151DMC      H 1637   1.819   3.473   2.237
  151DMC      H 1638   1.751   3.637   2.234
  151DMC      H 1639   1.919   3.614   2.284
  151DMC      H 1640   1.821   3.396   2.812
  151DMC      H 1641   1.872   3.288   2.680
  151DMC      H 1642   1.973   3.430   2.727
  152DMC      C 1643   0.911   2.536   2.954
  152DMC      O 1644   0.792   2.525   2.874
  152DMC      C 1645   0.743   2.644   2.833
  152DMC      O 1646   0.789   2.754   2.860
  152DMC      O 1647   0.632   2.621   2.759
  152DMC      C 1648   0.569   2.739   2.710
  152DMC      H 1649   0.891   2.592   3.046
  152DMC      H 1650   0.943   2.435   2.981
  152DMC      H 1651   0.991   2.584   2.897
  152DMC      H 1652   0.481   2.709   2.652
  152DMC      H 1653   0.535   2.802   2.794
  152DMC      H 1654   0.637   2.794   2.645
  153DMC      C 1655   0.332   3.442   2.641
  153DMC      O 1656   0.466   3.439   2.591
  153DMC      C 1657   0.476   3.389   2.466
  153DMC      O 1658   0.384   3.348   2.397
  153DMC      O 1659   0.608   3.391   2.430
  153DMC      C 1660   0.633   3.340   2.300
  153DMC      H 1661   0.290   3.341   2.646
  153DMC      H 1662   0.333   3.484   2.742
  153DMC      H 1663   0.269   3.506   2.578
  153DMC      H 1664   0.741   3.345   2.281
  153DMC      H 1665   0.602   3.234   2.293
  153DMC      H 1666   0.581   3.400   2.225
  154DMC      C 1667   2.700   2.142   2.918
  154DMC      O 1668   2.616   2.156   3.032
  154DMC      C 1669   2.491   2.107   3.014
  154DMC      O 1670   2.448   2.055   2.912
  154DMC      O 1671   2.421   2.125   3.129
  154DMC      C 1672   2.287   2.078   3.124
  154DMC      H 1673   2.659   2.197   2.832
  154DMC      H 1674   2.798   2.184   2.942
  154DMC      H 1675   2.714   2.037   2.892
  154DMC      H 1676   2.240   2.098   3.220
  154DMC      H 1677   2.231   2.131   3.046
  154DMC      H 1678   2.286   1.970   3.106
  155DMC      C 1679   3.012   2.995   2.592
  155DMC      O 1680   3.147   3.014   2.637
  155DMC      C 1681   3.160   3.021   2.771
  155DMC      O 1682   3.068   3.015   2.852
  155DMC      O 1683   3.291   3.038   2.801
  155DMC      C 1684   3.318   3.048   2.939
  155DMC      H 1685   2.950   3.080   2.623
  155DMC      H 1686   3.012   2.990   2.483
  155DMC      H 1687   2.971   2.902   2.631
  155DMC      H 1688   3.426   3.062   2.952
  155DMC      H 1689   3.267   3.136   2.982
  155DMC      H 1690   3.289   2.957   2.991
  156DMC      C 1691   2.471   3.492   1.258
  156DMC      O 1692   2.580   3.583   1.278
  156DMC      C 1693   2.541   3.707   1.316
  156DMC      O 1694   2.425   3.744   1.332
  156DMC      O 1695   2.652   3.783   1.333
  156DMC      C 1696   2.625   3.917   1.372
  156DMC      H 1697   2.405   3.528   1.178
  156DMC      H 1698   2.512   3.395   1.229
  156DMC      H 1699   2.414   3.478   1.351
  156DMC      H 1700   2.721   3.970   1.382
  156DMC      H 1701   2.565   3.968   1.295
  156DMC      H 1702   2.574   3.919   1.468
  157DMC      C 1703   1.781   0.526   0.623
  157DMC      O 1704   1.660   0.501   0.694
  157DMC      C 1705   1.609   0.377   0.675
  157DMC      O 1706   1.658   0.290   0.603
  157DMC      O 1707   1.495   0.366   0.748
  157DMC      C 1708   1.432   0.239   0.735
  157DMC      H 1709   1.765   0.518   0.515
  157DMC      H 1710   1.814   0.628   0.645
  157DMC      H 1711   1.860   0.457   0.655
  157DMC      H 1712   1.341   0.241   0.797
  157DMC      H 1713   1.402   0.221   0.631
  157DMC      H 1714   1.497   0.160   0.771
  158DMC      C 1715   2.477   2.999   2.218
  158DMC      O 1716   2.482   3.125   2.150
  158DMC      C 1717   2.447   3.117   2.019
  158DMC      O 1718   2.413   3.016   1.960
  158DMC      O 1719   2.455   3.242   1.966
  158DMC      C 1720   2.421   3.248   1.828
  158DMC      H 1721   2.546   2.927   2.173
  158DMC      H 1722   2.507   3.015   2.322
  158DMC      H 1723   2.375   2.959   2.217
  158DMC      H 1724   2.432   3.352   1.795
  158DMC      H 1725   2.489   3.186   1.769
  158DMC      H 1726   2.317   3.217   1.813
  159DMC      C 1727   1.649   0.196   2.614
  159DMC      O 1728   1.737   0.297   2.565
  159DMC      C 1729   1.846   0.317   2.643
  159DMC      O 1730   1.872   0.258   2.747
  159DMC      O 1731   1.922   0.415   2.587
  159DMC      C 1732   2.040   0.446   2.660
  159DMC      H 1733   1.610   0.222   2.713
  159DMC      H 1734   1.565   0.187   2.544
  159DMC      H 1735   1.700   0.099   2.618
  159DMC      H 1736   2.093   0.526   2.607
  159DMC      H 1737   2.014   0.483   2.760
  159DMC      H 1738   2.105   0.359   2.666
  160DMC      C 1739   2.838   3.441   0.465
  160DMC      O 1740   2.858   3.412   0.604
  160DMC      C 1741   2.874   3.280   0.630
  160DMC      O 1742   2.872   3.190   0.548
  160DMC      O 1743   2.893   3.265   0.764
  160DMC      C 1744   2.911   3.130   0.805
  160DMC      H 1745   2.747   3.392   0.428
  160DMC      H 1746   2.826   3.549   0.455
  160DMC      H 1747   2.924   3.410   0.406
  160DMC      H 1748   2.924   3.129   0.914
  160DMC      H 1749   2.822   3.070   0.781
  160DMC      H 1750   3.000   3.088   0.758
  161DMC      C 1751   1.935   1.271   3.426
  161DMC      O 1752   1.877   1.154   3.485
  161DMC      C 1753   1.861   1.052   3.398
  161DMC      O 1754   1.890   1.053   3.279
  161DMC      O 1755   1.805   0.947   3.465
  161DMC      C 1756   1.783   0.833   3.385
  161DMC      H 1757   1.871   1.310   3.346
  161DMC      H 1758   1.944   1.348   3.504
  161DMC      H 1759   2.035   1.249   3.387
  161DMC      H 1760   1.737   0.755   3.448
  161DMC      H 1761   1.712   0.856   3.304
  161DMC      H 1762   1.877   0.795   3.345
  162DMC      C 1763   1.221   2.717   1.164
  162DMC      O 1764   1.307   2.782   1.258
  162DMC      C 1765   1.285   2.915   1.270
  162DMC      O 1766   1.201   2.979   1.208
  162DMC      O 1767   1.372   2.965   1.361
  162DMC      C 1768   1.359   3.104   1.383
  162DMC      H 1769   1.235   2.758   1.063
  162DMC      H 1770   1.246   2.611   1.161
  162DMC      H 1771   1.116   2.727   1.194
  162DMC      H 1772   1.434   3.135   1.457
  162DMC      H 1773   1.379   3.160   1.290
  162DMC      H 1774   1.260   3.128   1.421
  163DMC      C 1775   3.685   3.180   1.668
  163DMC      O 1776   3.617   3.127   1.553
  163DMC      C 1777   3.544   3.016   1.579
  163DMC      O 1778   3.534   2.961   1.688
  163DMC      O 1779   3.484   2.976   1.464
  163DMC      C 1780   3.405   2.859   1.478
  163DMC      H 1781   3.756   3.107   1.707
  163DMC      H 1782   3.740   3.269   1.637
  163DMC      H 1783   3.613   3.209   1.745
  163DMC      H 1784   3.362   2.835   1.379
  163DMC      H 1785   3.467   2.774   1.510
  163DMC      H 1786   3.323   2.876   1.548
  164DMC      C 1787   2.661   1.104   3.896
  164DMC      O 1788   2.684   1.132   3.757
  164DMC      C 1789   2.657   1.260   3.723
  164DMC      O 1790   2.617   1.348   3.798
  164DMC      O 1791   2.683   1.275   3.590
  164DMC      C 1792   2.658   1.406   3.541
  164DMC      H 1793   2.556   1.120   3.922
  164DMC      H 1794   2.685   0.998   3.914
  164DMC      H 1795   2.726   1.165   3.959
  164DMC      H 1796   2.681   1.407   3.434
  164DMC      H 1797   2.552   1.432   3.554
  164DMC      H 1798   2.723   1.478   3.591
  165DMC      C 1799   3.618   3.924   1.050
  165DMC      O 1800   3.665   3.961   0.920
  165DMC      C 1801   3.592   3.911   0.818
  165DMC      O 1802   3.494   3.838   0.829
  165DMC      O 1803   3.647   3.954   0.701
  165DMC      C 1804   3.579   3.907   0.586
  165DMC      H 1805   3.622   3.815   1.062
  165DMC      H 1806   3.683   3.969   1.125
  165DMC      H 1807   3.516   3.960   1.066
  165DMC      H 1808   3.631   3.946   0.497
  165DMC      H 1809   3.583   3.797   0.581
  165DMC      H 1810   3.476   3.942   0.584
  166DMC      C 1811   1.890   0.940   2.362
  166DMC      O 1812   1.948   0.826   2.427
  166DMC      C 1813   2.064   0.785   2.371
  166DMC      O 1814   2.119   0.835   2.274
  166DMC      O 1815   2.110   0.678   2.442
  166DMC      C 1816   2.232   0.625   2.393
  166DMC      H 1817   1.866   0.916   2.258
  166DMC      H 1818   1.797   0.965   2.414
  166DMC      H 1819   1.957   1.026   2.367
  166DMC      H 1820   2.259   0.539   2.456
  166DMC      H 1821   2.219   0.588   2.290
  166DMC      H 1822   2.311   0.699   2.399
  167DMC      C 1823   3.872   0.380   2.686
  167DMC      O 1824   3.747   0.449   2.675
  167DMC      C 1825   3.725   0.538   2.774
  167DMC      O 1826   3.800   0.561   2.868
  167DMC      O 1827   3.604   0.598   2.753
  167DMC      C 1828   3.569   0.694   2.851
  167DMC      H 1829   3.875   0.322   2.779
  167DMC      H 1830   3.880   0.311   2.602
  167DMC      H 1831   3.955   0.450   2.682
  167DMC      H 1832   3.471   0.735   2.825
  167DMC      H 1833   3.561   0.646   2.950
  167DMC      H 1834   3.641   0.775   2.852
  168DMC      C 1835   0.732   1.325   0.162
  168DMC      O 1836   0.636   1.352   0.265
  168DMC      C 1837   0.514   1.386   0.217
  168DMC      O 1838   0.483   1.396   0.100
  168DMC      O 1839   0.432   1.409   0.324
  168DMC      C 1840   0.300   1.446   0.287
  168DMC      H 1841   0.749   1.414   0.100
  168DMC      H 1842   0.827   1.298   0.209
  168DMC      H 1843   0.700   1.241   0.100
  168DMC      H 1844   0.243   1.463   0.380
  168DMC      H 1845   0.301   1.541   0.231
  168DMC      H 1846   0.252   1.367   0.230
  169DMC      C 1847   3.503   1.544   0.758
  169DMC      O 1848   3.386   1.465   0.734
  169DMC      C 1849   3.404   1.368   0.640
  169DMC      O 1850   3.508   1.347   0.579
  169DMC      O 1851   3.288   1.300   0.626
  169DMC      C 1852   3.294   1.196   0.530
  169DMC      H 1853   3.533   1.597   0.667
  169DMC      H 1854   3.478   1.618   0.835
  169DMC      H 1855   3.584   1.482   0.795
  169DMC      H 1856   3.195   1.147   0.526
  169DMC      H 1857   3.316   1.236   0.430
  169DMC      H 1858   3.368   1.121   0.559
  170DMC      C 1859   0.980   1.025   0.602
  170DMC      O 1860   1.046   1.124   0.681
  170DMC      C 1861   1.015   1.251   0.647
  170DMC      O 1862   0.939   1.285   0.557
  170DMC      O 1863   1.083   1.335   0.730
  170DMC      C 1864   1.059   1.473   0.703
  170DMC      H 1865   1.009   1.035   0.496
  170DMC      H 1866   1.011   0.926   0.637
  170DMC      H 1867   0.871   1.033   0.612
  170DMC      H 1868   1.119   1.532   0.774
  170DMC      H 1869   1.092   1.499   0.602
  170DMC      H 1870   0.954   1.497   0.718
  171EMC      C 1871   0.713   0.241   2.218
  171EMC      C 1872   0.834   0.301   2.286
  171EMC      O 1873   0.827   0.444   2.285
  171EMC      C 1874   0.876   0.504   2.174
  171EMC      O 1875   0.924   0.449   2.077
  171EMC      O 1876   0.862   0.638   2.189
  171EMC      C 1877   0.909   0.715   2.078
  171EMC      H 1878   0.621   0.277   2.266
  171EMC      H 1879   0.715   0.132   2.224
  171EMC      H 1880   0.707   0.271   2.114
  171EMC      H 1881   0.838   0.270   2.391
  171EMC      H 1882   0.928   0.265   2.240
  171EMC      H 1883   1.017   0.698   2.063
  171EMC      H 1884   0.894   0.820   2.101
  171EMC      H 1885   0.854   0.690   1.988
  172EMC      C 1886   1.123   3.416   1.308
  172EMC      C 1887   0.984   3.356   1.317
  172EMC      O 1888   0.967   3.286   1.440
  172EMC      C 1889   1.008   3.157   1.439
  172EMC      O 1890   1.056   3.097   1.345
  172EMC      O 1891   0.985   3.105   1.562
  172EMC      C 1892   1.023   2.968   1.576
  172EMC      H 1893   1.143   3.481   1.394
  172EMC      H 1894   1.135   3.475   1.216
  172EMC      H 1895   1.199   3.338   1.308
  172EMC      H 1896   0.910   3.437   1.315
  172EMC      H 1897   0.962   3.293   1.230
  172EMC      H 1898   0.966   2.905   1.506
  172EMC      H 1899   1.001   2.936   1.678
  172EMC      H 1900   1.130   2.956   1.559
  173EMC      C 1901   2.446   3.091   3.741
  173EMC      C 1902   2.520   3.196   3.820
  173EMC      O 1903   2.433   3.303   3.857
  173EMC      C 1904   2.421   3.401   3.765
  173EMC      O 1905   2.476   3.406   3.656
  173EMC      O 1906   2.335   3.494   3.814
  173EMC      C 1907   2.313   3.605   3.727
  173EMC      H 1908   2.359   3.055   3.797
  173EMC      H 1909   2.511   3.006   3.718
  173EMC      H 1910   2.408   3.132   3.647
  173EMC      H 1911   2.558   3.151   3.914
  173EMC      H 1912   2.609   3.232   3.766
  173EMC      H 1913   2.406   3.659   3.707
  173EMC      H 1914   2.243   3.673   3.776
  173EMC      H 1915   2.267   3.571   3.634
  174EMC      C 1916   2.085   0.223   2.449
  174EMC      C 1917   2.031   0.191   2.311
  174EMC      O 1918   1.938   0.291   2.269
  174EMC      C 1919   1.810   0.271   2.309
  174EMC      O 1920   1.769   0.178   2.376
  174EMC      O 1921   1.735   0.374   2.262
  174EMC      C 1922   1.597   0.366   2.297
  174EMC      H 1923   2.130   0.323   2.451
  174EMC      H 1924   2.161   0.149   2.479
  174EMC      H 1925   2.006   0.222   2.523
  174EMC      H 1926   2.114   0.192   2.238
  174EMC      H 1927   1.988   0.090   2.307
  174EMC      H 1928   1.552   0.275   2.255
  174EMC      H 1929   1.546   0.452   2.254
  174EMC      H 1930   1.584   0.368   2.405
  175EMC      C 1931   3.300   1.737   0.180
  175EMC      C 1932   3.385   1.862   0.196
  175EMC      O 1933   3.486   1.842   0.294
  175EMC      C 1934   3.448   1.868   0.422
  175EMC      O 1935   3.339   1.906   0.459
  175EMC      O 1936   3.555   1.844   0.503
  175EMC      C 1937   3.529   1.867   0.641
  175EMC      H 1938   3.363   1.651   0.156
  175EMC      H 1939   3.226   1.750   0.100
  175EMC      H 1940   3.247   1.714   0.272
  175EMC      H 1941   3.436   1.884   0.101
  175EMC      H 1942   3.323   1.950   0.218
  175EMC      H 1943   3.503   1.973   0.659
  175EMC      H 1944   3.621   1.845   0.697
  175EMC      H 1945   3.450   1.801   0.678
  176EMC      C 1946   3.039   2.980   2.098
  176EMC      C 1947   3.162   2.941   2.177
  176EMC      O 1948   3.268   2.903   2.089
  176EMC      C 1949   3.267   2.773   2.050
  176EMC      O 1950   3.187   2.688   2.083
  176EMC      O 1951   3.373   2.754   1.967
  176EMC      C 1952   3.385   2.620   1.918
  176EMC      H 1953   3.063   3.061   2.027
  176EMC      H 1954   2.960   3.015   2.165
  176EMC      H 1955   3.001   2.897   2.040
  176EMC      H 1956   3.198   3.027   2.235
  176EMC      H 1957   3.139   2.862   2.250
  176EMC      H 1958   3.400   2.550   2.001
  176EMC      H 1959   3.473   2.616   1.853
  176EMC      H 1960   3.298   2.593   1.859
  177EMC      C 1961   1.943   2.641   3.116
  177EMC      C 1962   1.823   2.687   3.194
  177EMC      O 1963   1.745   2.575   3.239
  177EMC      C 1964   1.653   2.530   3.150
  177EMC      O 1965   1.631   2.576   3.039
  177EMC      O 1966   1.589   2.425   3.206
  177EMC      C 1967   1.488   2.367   3.124
  177EMC      H 1968   2.004   2.571   3.175
  177EMC      H 1969   2.006   2.726   3.087
  177EMC      H 1970   1.913   2.588   3.025
  177EMC      H 1971   1.856   2.741   3.285
  177EMC      H 1972   1.762   2.758   3.137
  177EMC      H 1973   1.409   2.440   3.101
  177EMC      H 1974   1.443   2.284   3.178
  177EMC      H 1975   1.532   2.328   3.031
  178EMC      C 1976   2.947   3.756   3.471
  178EMC      C 1977   3.010   3.892   3.482
  178EMC      O 1978   3.096   3.918   3.371
  178EMC      C 1979   3.223   3.872   3.384
  178EMC      O 1980   3.269   3.814   3.480
  178EMC      O 1981   3.290   3.903   3.270
  178EMC      C 1982   3.427   3.862   3.271
  178EMC      H 1983   2.893   3.746   3.376
  178EMC      H 1984   2.876   3.739   3.554
  178EMC      H 1985   3.022   3.677   3.473
  178EMC      H 1986   2.931   3.970   3.481
  178EMC      H 1987   3.063   3.905   3.578
  178EMC      H 1988   3.482   3.910   3.352
  178EMC      H 1989   3.472   3.892   3.176
  178EMC      H 1990   3.434   3.753   3.279
  179EMC      C 1991   2.479   2.900   1.169
  179EMC      C 1992   2.569   3.016   1.133
  179EMC      O 1993   2.705   2.974   1.125
  179EMC      C 1994   2.773   2.975   1.243
  179EMC      O 1995   2.730   3.008   1.351
  179EMC      O 1996   2.899   2.932   1.218
  179EMC      C 1997   2.983   2.928   1.333
  179EMC      H 1998   2.491   2.818   1.097
  179EMC      H 1999   2.374   2.931   1.170
  179EMC      H 2000   2.503   2.860   1.267
  179EMC      H 2001   2.541   3.055   1.034
  179EMC      H 2002   2.556   3.100   1.204
  179EMC      H 2003   2.994   3.029   1.377
  179EMC      H 2004   3.082   2.893   1.303
  179EMC      H 2005   2.943   2.859   1.408
  180EMC      C 2006   2.206   2.743   0.926
  180EMC      C 2007   2.179   2.712   1.072
  180EMC      O 2008   2.299   2.725   1.149
  180EMC      C 2009   2.377   2.614   1.154
  180EMC      O 2010   2.354   2.507   1.100
  180EMC      O 2011   2.485   2.643   1.230
  180EMC      C 2012   2.576   2.534   1.244
  180EMC      H 2013   2.250   2.843   0.915
  180EMC      H 2014   2.113   2.739   0.868
  180EMC      H 2015   2.276   2.672   0.883
  180EMC      H 2016   2.107   2.785   1.112
  180EMC      H 2017   2.133   2.613   1.084
  180EMC      H 2018   2.528   2.448   1.293
  180EMC      H 2019   2.659   2.567   1.307
  180EMC      H 2020   2.616   2.504   1.147
  181EMC      C 2021   3.527   2.974   2.345
  181EMC      C 2022   3.505   3.088   2.442
  181EMC      O 2023   3.370   3.091   2.487
  181EMC      C 2024   3.283   3.159   2.408
  181EMC      O 2025   3.311   3.217   2.305
  181EMC      O 2026   3.160   3.152   2.464
  181EMC      C 2027   3.058   3.220   2.391
  181EMC      H 2028   3.498   2.878   2.391
  181EMC      H 2029   3.632   2.968   2.315
  181EMC      H 2030   3.466   2.986   2.256
  181EMC      H 2031   3.568   3.074   2.531
  181EMC      H 2032   3.535   3.184   2.398
  181EMC      H 2033   3.081   3.328   2.384
  181EMC      H 2034   2.964   3.209   2.445
  181EMC      H 2035   3.047   3.177   2.291
  182EMC      C 2036   2.993   3.834   1.438
  182EMC      C 2037   2.930   3.748   1.331
  182EMC      O 2038   3.030   3.683   1.253
  182EMC      C 2039   3.078   3.755   1.148
  182EMC      O 2040   3.044   3.866   1.115
  182EMC      O 2041   3.172   3.679   1.085
  182EMC      C 2042   3.231   3.743   0.972
  182EMC      H 2043   3.061   3.775   1.501
  182EMC      H 2044   2.916   3.880   1.501
  182EMC      H 2045   3.053   3.914   1.394
  182EMC      H 2046   2.870   3.669   1.378
  182EMC      H 2047   2.861   3.806   1.268
  182EMC      H 2048   3.155   3.764   0.895
  182EMC      H 2049   3.304   3.674   0.929
  182EMC      H 2050   3.283   3.834   1.001
  183EMC      C 2051   0.444   1.303   2.167
  183EMC      C 2052   0.360   1.266   2.046
  183EMC      O 2053   0.428   1.169   1.966
  183EMC      C 2054   0.515   1.219   1.874
  183EMC      O 2055   0.538   1.337   1.854
  183EMC      O 2056   0.570   1.115   1.808
  183EMC      C 2057   0.664   1.153   1.707
  183EMC      H 2058   0.469   1.214   2.225
  183EMC      H 2059   0.389   1.373   2.231
  183EMC      H 2060   0.538   1.349   2.137
  183EMC      H 2061   0.266   1.220   2.079
  183EMC      H 2062   0.333   1.355   1.987
  183EMC      H 2063   0.615   1.214   1.630
  183EMC      H 2064   0.702   1.063   1.660
  183EMC      H 2065   0.748   1.207   1.751
  184EMC      C 2066   1.333   0.919   2.716
  184EMC      C 2067   1.225   0.864   2.625
  184EMC      O 2068   1.163   0.750   2.685
  184EMC      C 2069   1.225   0.631   2.662
  184EMC      O 2070   1.326   0.614   2.597
  184EMC      O 2071   1.154   0.534   2.726
  184EMC      C 2072   1.209   0.403   2.710
  184EMC      H 2073   1.291   0.944   2.815
  184EMC      H 2074   1.376   1.011   2.673
  184EMC      H 2075   1.412   0.847   2.732
  184EMC      H 2076   1.146   0.939   2.611
  184EMC      H 2077   1.265   0.841   2.525
  184EMC      H 2078   1.210   0.374   2.604
  184EMC      H 2079   1.144   0.333   2.764
  184EMC      H 2080   1.309   0.398   2.752
  185EMC      C 2081   2.246   2.190   0.309
  185EMC      C 2082   2.308   2.261   0.191
  185EMC      O 2083   2.326   2.400   0.221
  185EMC      C 2084   2.218   2.479   0.195
  185EMC      O 2085   2.111   2.443   0.150
  185EMC      O 2086   2.251   2.606   0.228
  185EMC      C 2087   2.147   2.701   0.206
  185EMC      H 2088   2.306   2.204   0.399
  185EMC      H 2089   2.237   2.082   0.289
  185EMC      H 2090   2.146   2.228   0.331
  185EMC      H 2091   2.408   2.220   0.171
  185EMC      H 2092   2.249   2.247   0.099
  185EMC      H 2093   2.120   2.705   0.100
  185EMC      H 2094   2.184   2.800   0.236
  185EMC      H 2095   2.060   2.677   0.268
  186EMC      C 2096   1.044   0.477   0.733
  186EMC      C 2097   0.987   0.364   0.651
  186EMC      O 2098   0.846   0.355   0.668
  186EMC      C 2099   0.805   0.280   0.774
  186EMC      O 2100   0.877   0.221   0.853
  186EMC      O 2101   0.670   0.281   0.777
  186EMC      C 2102   0.613   0.206   0.884
  186EMC      H 2103   0.994   0.572   0.709
  186EMC      H 2104   1.152   0.489   0.715
  186EMC      H 2105   1.028   0.460   0.840
  186EMC      H 2106   1.005   0.384   0.544
  186EMC      H 2107   1.038   0.269   0.673
  186EMC      H 2108   0.641   0.100   0.876
  186EMC      H 2109   0.504   0.213   0.877
  186EMC      H 2110   0.644   0.246   0.980
  187EMC      C 2111   1.925   1.797   2.948
  187EMC      C 2112   1.781   1.821   2.909
  187EMC      O 2113   1.700   1.710   2.947
  187EMC      C 2114   1.694   1.608   2.857
  187EMC      O 2115   1.750   1.603   2.750
  187EMC      O 2116   1.613   1.512   2.908
  187EMC      C 2117   1.598   1.398   2.824
  187EMC      H 2118   1.933   1.777   3.056
  187EMC      H 2119   1.987   1.885   2.924
  187EMC      H 2120   1.967   1.711   2.897
  187EMC      H 2121   1.742   1.909   2.961
  187EMC      H 2122   1.772   1.842   2.801
  187EMC      H 2123   1.552   1.427   2.728
  187EMC      H 2124   1.532   1.327   2.874
  187EMC      H 2125   1.694   1.349   2.807
  188EMC      C 2126   0.548   3.814   2.189
  188EMC      C 2127   0.407   3.861   2.219
  188EMC      O 2128   0.313   3.800   2.131
  188EMC      C 2129   0.295   3.864   2.013
  188EMC      O 2130   0.349   3.967   1.977
  188EMC      O 2131   0.204   3.794   1.941
  188EMC      C 2132   0.174   3.850   1.813
  188EMC      H 2133   0.554   3.704   2.193
  188EMC      H 2134   0.619   3.856   2.261
  188EMC      H 2135   0.578   3.843   2.088
  188EMC      H 2136   0.379   3.831   2.322
  188EMC      H 2137   0.400   3.971   2.217
  188EMC      H 2138   0.131   3.951   1.824
  188EMC      H 2139   0.100   3.787   1.764
  188EMC      H 2140   0.263   3.854   1.751
  189EMC      C 2141   2.507   0.549   3.289
  189EMC      C 2142   2.510   0.409   3.347
  189EMC      O 2143   2.389   0.382   3.419
  189EMC      C 2144   2.389   0.423   3.549
  189EMC      O 2145   2.481   0.478   3.608
  189EMC      O 2146   2.269   0.390   3.603
  189EMC      C 2147   2.255   0.427   3.740
  189EMC      H 2148   2.418   0.562   3.225
  189EMC      H 2149   2.596   0.567   3.228
  189EMC      H 2150   2.501   0.624   3.367
  189EMC      H 2151   2.516   0.335   3.266
  189EMC      H 2152   2.599   0.394   3.410
  189EMC      H 2153   2.330   0.375   3.802
  189EMC      H 2154   2.156   0.396   3.773
  189EMC      H 2155   2.264   0.535   3.752
  190EMC      C 2156   0.974   2.256   0.777
  190EMC      C 2157   0.967   2.380   0.691
  190EMC      O 2158   1.029   2.491   0.757
  190EMC      C 2159   0.948   2.561   0.841
  190EMC      O 2160   0.830   2.538   0.864
  190EMC      O 2161   1.021   2.661   0.895
  190EMC      C 2162   0.948   2.744   0.986
  190EMC      H 2163   1.079   2.234   0.804
  190EMC      H 2164   0.933   2.169   0.724
  190EMC      H 2165   0.920   2.269   0.870
  190EMC      H 2166   1.023   2.364   0.597
  190EMC      H 2167   0.863   2.403   0.662
  190EMC      H 2168   0.863   2.793   0.935
  190EMC      H 2169   1.015   2.821   1.023
  190EMC      H 2170   0.912   2.685   1.071
  191EMC      C 2171   1.344   1.035   3.089
  191EMC      C 2172   1.451   1.094   3.000
  191EMC      O 2173   1.533   0.991   2.945
  191EMC      C 2174   1.638   0.952   3.023
  191EMC      O 2175   1.667   0.997   3.132
  191EMC      O 2176   1.705   0.855   2.956
  191EMC      C 2177   1.819   0.805   3.027
  191EMC      H 2178   1.284   0.961   3.034
  191EMC      H 2179   1.277   1.113   3.127
  191EMC      H 2180   1.387   0.983   3.174
  191EMC      H 2181   1.404   1.146   2.916
  191EMC      H 2182   1.510   1.169   3.054
  191EMC      H 2183   1.892   0.885   3.044
  191EMC      H 2184   1.865   0.728   2.965
  191EMC      H 2185   1.788   0.760   3.121
  192EMC      C 2186   1.535   1.023   3.586
  192EMC      C 2187   1.443   0.971   3.478
  192EMC      O 2188   1.423   1.071   3.377
  192EMC      C 2189   1.324   1.160   3.401
  192EMC      O 2190   1.251   1.162   3.498
  192EMC      O 2191   1.319   1.246   3.297
  192EMC      C 2192   1.218   1.346   3.309
  192EMC      H 2193   1.630   1.055   3.543
  192EMC      H 2194   1.554   0.945   3.661
  192EMC      H 2195   1.492   1.109   3.637
  192EMC      H 2196   1.488   0.884   3.429
  192EMC      H 2197   1.347   0.937   3.520
  192EMC      H 2198   1.118   1.300   3.313
  192EMC      H 2199   1.222   1.410   3.220
  192EMC      H 2200   1.235   1.408   3.397
  193EMC      C 2201   1.945   3.293   3.204
  193EMC      C 2202   1.920   3.211   3.080
  193EMC      O 2203   1.790   3.237   3.027
  193EMC      C 2204   1.689   3.163   3.081
  193EMC      O 2205   1.700   3.078   3.167
  193EMC      O 2206   1.573   3.200   3.021
  193EMC      C 2207   1.458   3.130   3.067
  193EMC      H 2208   1.931   3.400   3.183
  193EMC      H 2209   2.047   3.278   3.241
  193EMC      H 2210   1.875   3.268   3.283
  193EMC      H 2211   1.992   3.239   3.002
  193EMC      H 2212   1.935   3.104   3.099
  193EMC      H 2213   1.468   3.022   3.048
  193EMC      H 2214   1.371   3.167   3.013
  193EMC      H 2215   1.443   3.148   3.174
  194EMC      C 2216   0.657   0.908   2.203
  194EMC      C 2217   0.554   0.945   2.307
  194EMC      O 2218   0.571   0.867   2.426
  194EMC      C 2219   0.508   0.747   2.426
  194EMC      O 2220   0.440   0.701   2.337
  194EMC      O 2221   0.535   0.686   2.544
  194EMC      C 2222   0.474   0.558   2.559
  194EMC      H 2223   0.758   0.919   2.244
  194EMC      H 2224   0.647   0.972   2.114
  194EMC      H 2225   0.646   0.804   2.172
  194EMC      H 2226   0.567   1.051   2.336
  194EMC      H 2227   0.452   0.937   2.267
  194EMC      H 2228   0.364   0.566   2.554
  194EMC      H 2229   0.501   0.518   2.657
  194EMC      H 2230   0.511   0.489   2.482
  195EMC      C 2231   0.169   1.482   0.966
  195EMC      C 2232   0.240   1.616   0.969
  195EMC      O 2233   0.321   1.632   0.852
  195EMC      C 2234   0.446   1.580   0.862
  195EMC      O 2235   0.494   1.523   0.958
  195EMC      O 2236   0.510   1.603   0.745
  195EMC      C 2237   0.644   1.554   0.740
  195EMC      H 2238   0.110   1.472   0.874
  195EMC      H 2239   0.101   1.472   1.052
  195EMC      H 2240   0.239   1.400   0.968
  195EMC      H 2241   0.165   1.697   0.967
  195EMC      H 2242   0.298   1.628   1.061
  195EMC      H 2243   0.706   1.603   0.817
  195EMC      H 2244   0.686   1.578   0.642
  195EMC      H 2245   0.645   1.445   0.753
  196EMC      C 2246   3.420   0.899   0.720
  196EMC      C 2247   3.411   0.750   0.696
  196EMC      O 2248   3.298   0.695   0.764
  196EMC      C 2249   3.321   0.660   0.894
  196EMC      O 2250   3.425   0.670   0.954
  196EMC      O 2251   3.205   0.610   0.943
  196EMC      C 2252   3.214   0.568   1.080
  196EMC      H 2253   3.327   0.949   0.690
  196EMC      H 2254   3.503   0.943   0.662
  196EMC      H 2255   3.435   0.922   0.825
  196EMC      H 2256   3.396   0.731   0.588
  196EMC      H 2257   3.505   0.700   0.724
  196EMC      H 2258   3.288   0.487   1.091
  196EMC      H 2259   3.116   0.529   1.110
  196EMC      H 2260   3.239   0.652   1.144
  197EMC      C 2261   2.208   1.494   3.150
  197EMC      C 2262   2.273   1.416   3.262
  197EMC      O 2263   2.345   1.304   3.210
  197EMC      C 2264   2.272   1.191   3.192
  197EMC      O 2265   2.153   1.178   3.217
  197EMC      O 2266   2.354   1.096   3.143
  197EMC      C 2267   2.289   0.970   3.119
  197EMC      H 2268   2.283   1.525   3.076
  197EMC      H 2269   2.158   1.584   3.189
  197EMC      H 2270   2.134   1.434   3.097
  197EMC      H 2271   2.347   1.480   3.314
  197EMC      H 2272   2.200   1.386   3.338
  197EMC      H 2273   2.249   0.929   3.213
  197EMC      H 2274   2.364   0.901   3.080
  197EMC      H 2275   2.210   0.981   3.045
  198EMC      C 2276   2.942   3.867   0.703
  198EMC      C 2277   3.064   3.879   0.615
  198EMC      O 2278   3.026   3.892   0.478
  198EMC      C 2279   3.005   3.775   0.411
  198EMC      O 2280   3.017   3.663   0.457
  198EMC      O 2281   2.970   3.805   0.284
  198EMC      C 2282   2.945   3.691   0.202
  198EMC      H 2283   2.875   3.953   0.689
  198EMC      H 2284   2.972   3.863   0.809
  198EMC      H 2285   2.885   3.778   0.680
  198EMC      H 2286   3.121   3.970   0.641
  198EMC      H 2287   3.133   3.795   0.629
  198EMC      H 2288   3.036   3.629   0.193
  198EMC      H 2289   2.918   3.726   0.103
  198EMC      H 2290   2.863   3.632   0.242
  199EMC      C 2291   2.095   3.906   2.792
  199EMC      C 2292   1.967   3.862   2.726
  199EMC      O 2293   1.994   3.781   2.612
  199EMC      C 2294   2.014   3.850   2.496
  199EMC      O 2295   2.010   3.970   2.482
  199EMC      O 2296   2.039   3.760   2.398
  199EMC      C 2297   2.061   3.818   2.270
  199EMC      H 2298   2.158   3.820   2.818
  199EMC      H 2299   2.074   3.963   2.884
  199EMC      H 2300   2.154   3.969   2.725
  199EMC      H 2301   1.909   3.799   2.796
  199EMC      H 2302   1.902   3.947   2.702
  199EMC      H 2303   1.972   3.874   2.236
  199EMC      H 2304   2.080   3.738   2.198
  199EMC      H 2305   2.149   3.883   2.272
  200EMC      C 2306   2.120   2.409   0.609
  200EMC      C 2307   2.141   2.545   0.546
  200EMC      O 2308   2.232   2.536   0.436
  200EMC      C 2309   2.364   2.546   0.469
  200EMC      O 2310   2.409   2.562   0.580
  200EMC      O 2311   2.436   2.535   0.355
  200EMC      C 2312   2.577   2.545   0.374
  200EMC      H 2313   2.086   2.336   0.534
  200EMC      H 2314   2.046   2.415   0.689
  200EMC      H 2315   2.213   2.370   0.651
  200EMC      H 2316   2.045   2.582   0.505
  200EMC      H 2317   2.174   2.619   0.620
  200EMC      H 2318   2.604   2.643   0.417
  200EMC      H 2319   2.626   2.535   0.277
  200EMC      H 2320   2.612   2.464   0.438
  201EMC      C 2321   2.370   1.891   1.204
  201EMC      C 2322   2.346   1.982   1.322
  201EMC      O 2323   2.430   1.946   1.432
  201EMC      C 2324   2.379   1.850   1.514
  201EMC      O 2325   2.272   1.795   1.502
  201EMC      O 2326   2.470   1.827   1.612
  201EMC      C 2327   2.430   1.727   1.706
  201EMC      H 2328   2.476   1.890   1.176
  201EMC      H 2329   2.310   1.922   1.118
  201EMC      H 2330   2.343   1.788   1.228
  201EMC      H 2331   2.374   2.086   1.294
  201EMC      H 2332   2.240   1.985   1.351
  201EMC      H 2333   2.338   1.758   1.758
  201EMC      H 2334   2.509   1.716   1.780
  201EMC      H 2335   2.415   1.631   1.657
  202EMC      C 2336   3.243   2.147   2.397
  202EMC      C 2337   3.394   2.143   2.380
  202EMC      O 2338   3.459   2.172   2.504
  202EMC      C 2339   3.479   2.304   2.530
  202EMC      O 2340   3.447   2.397   2.458
  202EMC      O 2341   3.541   2.314   2.650
  202EMC      C 2342   3.568   2.449   2.689
  202EMC      H 2343   3.211   2.078   2.476
  202EMC      H 2344   3.193   2.118   2.304
  202EMC      H 2345   3.209   2.246   2.426
  202EMC      H 2346   3.425   2.041   2.351
  202EMC      H 2347   3.427   2.210   2.300
  202EMC      H 2348   3.636   2.498   2.617
  202EMC      H 2349   3.618   2.446   2.786
  202EMC      H 2350   3.475   2.506   2.700
  203EMC      C 2351   3.804   1.968   2.259
  203EMC      C 2352   3.719   2.086   2.220
  203EMC      O 2353   3.796   2.206   2.219
  203EMC      C 2354   3.806   2.270   2.338
  203EMC      O 2355   3.756   2.235   2.443
  203EMC      O 2356   3.882   2.381   2.320
  203EMC      C 2357   3.901   2.459   2.438
  203EMC      H 2358   3.891   1.959   2.192
  203EMC      H 2359   3.746   1.875   2.254
  203EMC      H 2360   3.843   1.979   2.360
  203EMC      H 2361   3.680   2.072   2.117
  203EMC      H 2362   3.630   2.096   2.285
  203EMC      H 2363   3.805   2.495   2.476
  203EMC      H 2364   3.963   2.545   2.413
  203EMC      H 2365   3.953   2.400   2.515
  204EMC      C 2366   3.728   2.443   3.382
  204EMC      C 2367   3.809   2.390   3.266
  204EMC      O 2368   3.732   2.297   3.190
  204EMC      C 2369   3.736   2.168   3.234
  204EMC      O 2370   3.798   2.127   3.330
  204EMC      O 2371   3.659   2.093   3.152
  204EMC      C 2372   3.655   1.955   3.187
  204EMC      H 2373   3.634   2.488   3.347
  204EMC      H 2374   3.784   2.520   3.438
  204EMC      H 2375   3.701   2.364   3.452
  204EMC      H 2376   3.835   2.473   3.199
  204EMC      H 2377   3.904   2.347   3.300
  204EMC      H 2378   3.755   1.910   3.181
  204EMC      H 2379   3.590   1.904   3.115
  204EMC      H 2380   3.612   1.942   3.286
  205EMC      C 2381   0.427   1.168   3.438
  205EMC      C 2382   0.419   1.319   3.438
  205EMC      O 2383   0.419   1.369   3.572
  205EMC      C 2384   0.297   1.376   3.631
  205EMC      O 2385   0.191   1.344   3.582
  205EMC      O 2386   0.315   1.425   3.757
  205EMC      C 2387   0.194   1.438   3.831
  205EMC      H 2388   0.516   1.134   3.494
  205EMC      H 2389   0.433   1.130   3.335
  205EMC      H 2390   0.340   1.124   3.486
  205EMC      H 2391   0.508   1.361   3.388
  205EMC      H 2392   0.332   1.355   3.381
  205EMC      H 2393   0.125   1.508   3.782
  205EMC      H 2394   0.218   1.478   3.930
  205EMC      H 2395   0.146   1.340   3.845
  206EMC      C 2396   1.626   0.416   2.928
  206EMC      C 2397   1.744   0.503   2.888
  206EMC      O 2398   1.700   0.635   2.854
  206EMC      C 2399   1.661   0.651   2.725
  206EMC      O 2400   1.661   0.566   2.638
  206EMC      O 2401   1.622   0.780   2.709
  206EMC      C 2402   1.579   0.812   2.577
  206EMC      H 2403   1.570   0.462   3.010
  206EMC      H 2404   1.661   0.317   2.960
  206EMC      H 2405   1.557   0.404   2.845
  206EMC      H 2406   1.813   0.514   2.974
  206EMC      H 2407   1.802   0.457   2.807
  206EMC      H 2408   1.660   0.797   2.505
  206EMC      H 2409   1.550   0.918   2.575
  206EMC      H 2410   1.491   0.752   2.550
  207EMC      C 2411   2.308   2.307   2.474
  207EMC      C 2412   2.382   2.316   2.605
  207EMC      O 2413   2.518   2.276   2.590
  207EMC      C 2414   2.541   2.142   2.601
  207EMC      O 2415   2.457   2.056   2.624
  207EMC      O 2416   2.673   2.121   2.584
  207EMC      C 2417   2.712   1.984   2.594
  207EMC      H 2418   2.359   2.366   2.397
  207EMC      H 2419   2.205   2.343   2.484
  207EMC      H 2420   2.304   2.204   2.437
  207EMC      H 2421   2.383   2.421   2.640
  207EMC      H 2422   2.331   2.258   2.684
  207EMC      H 2423   2.689   1.944   2.694
  207EMC      H 2424   2.820   1.978   2.579
  207EMC      H 2425   2.663   1.924   2.517
  208EMC      C 2426   1.760   1.214   3.903
  208EMC      C 2427   1.795   1.169   3.763
  208EMC      O 2428   1.737   1.041   3.735
  208EMC      C 2429   1.812   0.934   3.773
  208EMC      O 2430   1.921   0.938   3.828
  208EMC      O 2431   1.744   0.822   3.740
  208EMC      C 2432   1.811   0.701   3.775
  208EMC      H 2433   1.651   1.215   3.917
  208EMC      H 2434   1.799   1.315   3.922
  208EMC      H 2435   1.801   1.146   3.977
  208EMC      H 2436   1.753   1.240   3.689
  208EMC      H 2437   1.904   1.169   3.746
  208EMC      H 2438   1.907   0.693   3.722
  208EMC      H 2439   1.748   0.617   3.744
  208EMC      H 2440   1.826   0.695   3.883
  209EMC      C 2441   0.219   0.607   2.780
  209EMC      C 2442   0.326   0.713   2.797
  209EMC      O 2443   0.267   0.843   2.801
  209EMC      C 2444   0.249   0.901   2.679
  209EMC      O 2445   0.277   0.853   2.571
  209EMC      O 2446   0.193   1.023   2.699
  209EMC      C 2447   0.167   1.096   2.579
  209EMC      H 2448   0.144   0.615   2.859
  209EMC      H 2449   0.264   0.506   2.784
  209EMC      H 2450   0.167   0.618   2.685
  209EMC      H 2451   0.377   0.698   2.894
  209EMC      H 2452   0.404   0.705   2.720
  209EMC      H 2453   0.261   1.115   2.525
  209EMC      H 2454   0.123   1.192   2.606
  209EMC      H 2455   0.097   1.042   2.516
  210EMC      C 2456   2.061   2.048   3.638
  210EMC      C 2457   2.101   2.151   3.535
  210EMC      O 2458   1.994   2.175   3.444
  210EMC      C 2459   1.988   2.091   3.337
  210EMC      O 2460   2.065   1.999   3.314
  210EMC      O 2461   1.882   2.127   3.261
  210EMC      C 2462   1.864   2.046   3.145
  210EMC      H 2463   1.970   2.079   3.691
  210EMC      H 2464   2.141   2.034   3.712
  210EMC      H 2465   2.040   1.952   3.592
  210EMC      H 2466   2.123   2.247   3.585
  210EMC      H 2467   2.194   2.122   3.483
  210EMC      H 2468   1.951   2.054   3.078
  210EMC      H 2469   1.776   2.083   3.091
  210EMC      H 2470   1.845   1.942   3.173
  211EMC      C 2471   3.538   2.388   0.899
  211EMC      C 2472   3.475   2.276   0.979
  211EMC      O 2473   3.419   2.326   1.100
  211EMC      C 2474   3.506   2.334   1.205
  211EMC      O 2475   3.623   2.303   1.204
  211EMC      O 2476   3.438   2.383   1.312
  211EMC      C 2477   3.517   2.396   1.430
  211EMC      H 2478   3.465   2.468   0.880
  211EMC      H 2479   3.576   2.351   0.803
  211EMC      H 2480   3.621   2.434   0.953
  211EMC      H 2481   3.393   2.232   0.921
  211EMC      H 2482   3.547   2.195   0.997
  211EMC      H 2483   3.556   2.298   1.462
  211EMC      H 2484   3.453   2.436   1.509
  211EMC      H 2485   3.599   2.466   1.413
  212EMC      C 2486   1.065   1.118   1.887
  212EMC      C 2487   0.950   1.079   1.977
  212EMC      O 2488   0.841   1.169   1.960
  212EMC      C 2489   0.845   1.281   2.037
  212EMC      O 2490   0.932   1.310   2.117
  212EMC      O 2491   0.736   1.355   2.009
  212EMC      C 2492   0.727   1.477   2.084
  212EMC      H 2493   1.033   1.122   1.782
  212EMC      H 2494   1.147   1.045   1.895
  212EMC      H 2495   1.104   1.216   1.913
  212EMC      H 2496   0.914   0.979   1.949
  212EMC      H 2497   0.982   1.072   2.082
  212EMC      H 2498   0.722   1.456   2.192
  212EMC      H 2499   0.636   1.529   2.054
  212EMC      H 2500   0.812   1.542   2.061
  213EMC      C 2501   3.357   3.830   1.281
  213EMC      C 2502   3.420   3.706   1.223
  213EMC      O 2503   3.337   3.592   1.245
  213EMC      C 2504   3.354   3.529   1.364
  213EMC      O 2505   3.433   3.561   1.451
  213EMC      O 2506   3.268   3.425   1.369
  213EMC      C 2507   3.276   3.349   1.490
  213EMC      H 2508   3.257   3.845   1.239
  213EMC      H 2509   3.418   3.919   1.258
  213EMC      H 2510   3.346   3.822   1.389
  213EMC      H 2511   3.431   3.717   1.114
  213EMC      H 2512   3.522   3.690   1.262
  213EMC      H 2513   3.376   3.305   1.502
  213EMC      H 2514   3.203   3.268   1.484
  213EMC      H 2515   3.251   3.411   1.576
  214EMC      C 2516   2.732   2.856   0.553
  214EMC      C 2517   2.847   2.814   0.464
  214EMC      O 2518   2.929   2.927   0.431
  214EMC      C 2519   2.889   2.998   0.323
  214EMC      O 2520   2.792   2.975   0.253
  214EMC      O 2521   2.976   3.101   0.306
  214EMC      C 2522   2.946   3.184   0.194
  214EMC      H 2523   2.770   2.907   0.643
  214EMC      H 2524   2.673   2.769   0.583
  214EMC      H 2525   2.667   2.927   0.502
  214EMC      H 2526   2.911   2.743   0.518
  214EMC      H 2527   2.811   2.762   0.374
  214EMC      H 2528   2.949   3.127   0.100
  214EMC      H 2529   3.022   3.263   0.189
  214EMC      H 2530   2.848   3.232   0.207
  215EMC      C 2531   0.880   3.147   2.186
  215EMC      C 2532   0.933   3.094   2.317
  215EMC      O 2533   0.876   3.166   2.427
  215EMC      C 2534   0.942   3.280   2.462
  215EMC      O 2535   1.042   3.324   2.409
  215EMC      O 2536   0.876   3.336   2.566
  215EMC      C 2537   0.935   3.457   2.614
  215EMC      H 2538   0.770   3.144   2.184
  215EMC      H 2539   0.919   3.088   2.102
  215EMC      H 2540   0.908   3.251   2.171
  215EMC      H 2541   0.903   2.989   2.329
  215EMC      H 2542   1.043   3.096   2.320
  215EMC      H 2543   1.037   3.439   2.650
  215EMC      H 2544   0.875   3.493   2.698
  215EMC      H 2545   0.934   3.533   2.536
  216EMC      C 2546   1.483   2.007   3.312
  216EMC      C 2547   1.590   1.940   3.396
  216EMC      O 2548   1.583   1.986   3.531
  216EMC      C 2549   1.653   2.100   3.557
  216EMC      O 2550   1.718   2.164   3.478
  216EMC      O 2551   1.636   2.129   3.689
  216EMC      C 2552   1.704   2.248   3.731
  216EMC      H 2553   1.384   1.990   3.355
  216EMC      H 2554   1.484   1.967   3.210
  216EMC      H 2555   1.498   2.115   3.308
  216EMC      H 2556   1.573   1.831   3.398
  216EMC      H 2557   1.690   1.955   3.353
  216EMC      H 2558   1.813   2.237   3.717
  216EMC      H 2559   1.685   2.262   3.837
  216EMC      H 2560   1.667   2.335   3.677
  217EMC      C 2561   1.222   2.038   2.272
  217EMC      C 2562   1.304   1.978   2.160
  217EMC      O 2563   1.325   2.073   2.055
  217EMC      C 2564   1.227   2.079   1.962
  217EMC      O 2565   1.125   2.012   1.959
  217EMC      O 2566   1.262   2.173   1.871
  217EMC      C 2567   1.167   2.190   1.766
  217EMC      H 2568   1.270   2.130   2.309
  217EMC      H 2569   1.211   1.968   2.355
  217EMC      H 2570   1.123   2.067   2.237
  217EMC      H 2571   1.403   1.949   2.198
  217EMC      H 2572   1.258   1.885   2.122
  217EMC      H 2573   1.155   2.097   1.708
  217EMC      H 2574   1.204   2.268   1.698
  217EMC      H 2575   1.071   2.223   1.806
  218EMC      C 2576   0.163   0.765   0.819
  218EMC      C 2577   0.222   0.826   0.694
  218EMC      O 2578   0.294   0.728   0.619
  218EMC      C 2579   0.423   0.710   0.655
  218EMC      O 2580   0.482   0.768   0.744
  218EMC      O 2581   0.476   0.614   0.575
  218EMC      C 2582   0.613   0.585   0.602
  218EMC      H 2583   0.099   0.680   0.793
  218EMC      H 2584   0.103   0.839   0.874
  218EMC      H 2585   0.241   0.727   0.885
  218EMC      H 2586   0.142   0.864   0.629
  218EMC      H 2587   0.286   0.913   0.718
  218EMC      H 2588   0.676   0.674   0.587
  218EMC      H 2589   0.646   0.507   0.532
  218EMC      H 2590   0.625   0.546   0.704
  219EMC      C 2591   2.893   2.647   2.157
  219EMC      C 2592   2.994   2.581   2.248
  219EMC      O 2593   3.052   2.467   2.185
  219EMC      C 2594   2.983   2.351   2.200
  219EMC      O 2595   2.879   2.337   2.261
  219EMC      O 2596   3.050   2.253   2.135
  219EMC      C 2597   2.989   2.125   2.143
  219EMC      H 2598   2.939   2.673   2.061
  219EMC      H 2599   2.853   2.738   2.202
  219EMC      H 2600   2.810   2.580   2.135
  219EMC      H 2601   3.076   2.652   2.269
  219EMC      H 2602   2.949   2.556   2.345
  219EMC      H 2603   2.982   2.091   2.247
  219EMC      H 2604   3.051   2.054   2.088
  219EMC      H 2605   2.890   2.127   2.097
  220EMC      C 2606   3.644   1.121   1.524
  220EMC      C 2607   3.768   1.036   1.510
  220EMC      O 2608   3.826   1.052   1.380
  220EMC      C 2609   3.775   0.970   1.284
  220EMC      O 2610   3.688   0.887   1.299
  220EMC      O 2611   3.840   0.997   1.168
  220EMC      C 2612   3.797   0.918   1.058
  220EMC      H 2613   3.667   1.227   1.503
  220EMC      H 2614   3.603   1.114   1.626
  220EMC      H 2615   3.567   1.091   1.454
  220EMC      H 2616   3.844   1.069   1.583
  220EMC      H 2617   3.747   0.931   1.533
  220EMC      H 2618   3.815   0.811   1.077
  220EMC      H 2619   3.855   0.947   0.970
  220EMC      H 2620   3.691   0.936   1.037
  221EMC      C 2621   1.476   1.015   0.627
  221EMC      C 2622   1.364   0.959   0.712
  221EMC      O 2623   1.341   0.822   0.682
  221EMC      C 2624   1.255   0.799   0.578
  221EMC      O 2625   1.198   0.883   0.512
  221EMC      O 2626   1.244   0.665   0.562
  221EMC      C 2627   1.157   0.626   0.456
  221EMC      H 2628   1.567   0.955   0.639
  221EMC      H 2629   1.498   1.119   0.655
  221EMC      H 2630   1.450   1.012   0.521
  221EMC      H 2631   1.393   0.964   0.819
  221EMC      H 2632   1.272   1.019   0.702
  221EMC      H 2633   1.054   0.662   0.476
  221EMC      H 2634   1.155   0.517   0.452
  221EMC      H 2635   1.193   0.664   0.361
  222EMC      C 2636   2.522   0.953   1.441
  222EMC      C 2637   2.457   1.082   1.486
  222EMC      O 2638   2.318   1.062   1.511
  222EMC      C 2639   2.237   1.075   1.403
  222EMC      O 2640   2.272   1.102   1.290
  222EMC      O 2641   2.110   1.053   1.444
  222EMC      C 2642   2.013   1.064   1.340
  222EMC      H 2643   2.506   0.874   1.515
  222EMC      H 2644   2.630   0.967   1.427
  222EMC      H 2645   2.480   0.918   1.347
  222EMC      H 2646   2.503   1.115   1.581
  222EMC      H 2647   2.475   1.163   1.413
  222EMC      H 2648   2.013   1.165   1.297
  222EMC      H 2649   1.914   1.045   1.383
  222EMC      H 2650   2.031   0.989   1.262
  223EMC      C 2651   1.245   2.497   2.119
  223EMC      C 2652   1.263   2.360   2.059
  223EMC      O 2653   1.327   2.272   2.152
  223EMC      C 2654   1.463   2.276   2.151
  223EMC      O 2655   1.533   2.346   2.080
  223EMC      O 2656   1.507   2.188   2.244
  223EMC      C 2657   1.649   2.182   2.255
  223EMC      H 2658   1.188   2.491   2.213
  223EMC      H 2659   1.190   2.563   2.050
  223EMC      H 2660   1.340   2.544   2.142
  223EMC      H 2661   1.165   2.316   2.036
  223EMC      H 2662   1.318   2.365   1.963
  223EMC      H 2663   1.694   2.148   2.160
  223EMC      H 2664   1.675   2.109   2.332
  223EMC      H 2665   1.690   2.278   2.284
  224EMC      C 2666   2.428   1.834   2.466
  224EMC      C 2667   2.311   1.740   2.448
  224EMC      O 2668   2.340   1.612   2.503
  224EMC      C 2669   2.405   1.526   2.419
  224EMC      O 2670   2.438   1.549   2.305
  224EMC      O 2671   2.425   1.410   2.487
  224EMC      C 2672   2.492   1.310   2.410
  224EMC      H 2673   2.456   1.841   2.572
  224EMC      H 2674   2.404   1.935   2.429
  224EMC      H 2675   2.516   1.798   2.412
  224EMC      H 2676   2.223   1.779   2.502
  224EMC      H 2677   2.281   1.733   2.342
  224EMC      H 2678   2.433   1.282   2.321
  224EMC      H 2679   2.503   1.221   2.473
  224EMC      H 2680   2.591   1.344   2.381
  225EMC      C 2681   3.638   1.046   3.469
  225EMC      C 2682   3.500   1.011   3.417
  225EMC      O 2683   3.510   0.948   3.289
  225EMC      C 2684   3.513   1.033   3.183
  225EMC      O 2685   3.509   1.155   3.187
  225EMC      O 2686   3.522   0.959   3.070
  225EMC      C 2687   3.527   1.036   2.950
  225EMC      H 2688   3.702   0.957   3.472
  225EMC      H 2689   3.631   1.089   3.570
  225EMC      H 2690   3.687   1.119   3.404
  225EMC      H 2691   3.452   0.938   3.485
  225EMC      H 2692   3.434   1.099   3.414
  225EMC      H 2693   3.435   1.095   2.938
  225EMC      H 2694   3.534   0.967   2.865
  225EMC      H 2695   3.615   1.100   2.949
  226EMC      C 2696   0.816   1.136   1.010
  226EMC      C 2697   0.687   1.183   0.946
  226EMC      O 2698   0.647   1.309   1.000
  226EMC      C 2699   0.573   1.303   1.114
  226EMC      O 2700   0.538   1.202   1.172
  226EMC      O 2701   0.543   1.430   1.151
  226EMC      C 2702   0.465   1.438   1.270
  226EMC      H 2703   0.894   1.212   0.998
  226EMC      H 2704   0.850   1.043   0.965
  226EMC      H 2705   0.803   1.120   1.117
  226EMC      H 2706   0.702   1.198   0.838
  226EMC      H 2707   0.608   1.107   0.956
  226EMC      H 2708   0.367   1.389   1.256
  226EMC      H 2709   0.447   1.544   1.292
  226EMC      H 2710   0.518   1.395   1.355
  227EMC      C 2711   3.876   3.672   2.671
  227EMC      C 2712   3.803   3.706   2.799
  227EMC      O 2713   3.779   3.588   2.876
  227EMC      C 2714   3.665   3.520   2.844
  227EMC      O 2715   3.585   3.550   2.759
  227EMC      O 2716   3.658   3.412   2.926
  227EMC      C 2717   3.542   3.331   2.904
  227EMC      H 2718   3.970   3.619   2.694
  227EMC      H 2719   3.900   3.763   2.615
  227EMC      H 2720   3.817   3.606   2.608
  227EMC      H 2721   3.865   3.772   2.861
  227EMC      H 2722   3.710   3.760   2.778
  227EMC      H 2723   3.450   3.388   2.923
  227EMC      H 2724   3.545   3.247   2.974
  227EMC      H 2725   3.542   3.290   2.802
  228EMC      C 2726   2.564   0.615   2.701
  228EMC      C 2727   2.527   0.557   2.836
  228EMC      O 2728   2.580   0.637   2.942
  228EMC      C 2729   2.708   0.607   2.979
  228EMC      O 2730   2.778   0.520   2.932
  228EMC      O 2731   2.743   0.692   3.079
  228EMC      C 2732   2.875   0.672   3.128
  228EMC      H 2733   2.531   0.719   2.693
  228EMC      H 2734   2.519   0.557   2.620
  228EMC      H 2735   2.672   0.615   2.687
  228EMC      H 2736   2.417   0.558   2.847
  228EMC      H 2737   2.559   0.452   2.845
  228EMC      H 2738   2.886   0.570   3.170
  228EMC      H 2739   2.893   0.744   3.208
  228EMC      H 2740   2.948   0.688   3.049
  229EMC      C 2741   3.105   1.703   1.619
  229EMC      C 2742   3.226   1.794   1.612
  229EMC      O 2743   3.192   1.926   1.654
  229EMC      C 2744   3.142   2.007   1.556
  229EMC      O 2745   3.125   1.977   1.440
  229EMC      O 2746   3.115   2.127   1.612
  229EMC      C 2747   3.062   2.223   1.520
  229EMC      H 2748   3.062   1.704   1.721
  229EMC      H 2749   3.133   1.600   1.593
  229EMC      H 2750   3.027   1.736   1.551
  229EMC      H 2751   3.304   1.758   1.682
  229EMC      H 2752   3.271   1.793   1.512
  229EMC      H 2753   3.134   2.243   1.439
  229EMC      H 2754   3.044   2.316   1.574
  229EMC      H 2755   2.967   2.188   1.478
  230EMC      C 2756   3.481   2.541   3.071
  230EMC      C 2757   3.496   2.691   3.088
  230EMC      O 2758   3.457   2.731   3.219
  230EMC      C 2759   3.325   2.756   3.236
  230EMC      O 2760   3.239   2.747   3.150
  230EMC      O 2761   3.305   2.792   3.365
  230EMC      C 2762   3.169   2.822   3.396
  230EMC      H 2763   3.539   2.488   3.148
  230EMC      H 2764   3.517   2.509   2.972
  230EMC      H 2765   3.378   2.510   3.082
  230EMC      H 2766   3.602   2.719   3.076
  230EMC      H 2767   3.440   2.745   3.010
  230EMC      H 2768   3.132   2.906   3.336
  230EMC      H 2769   3.164   2.850   3.502
  230EMC      H 2770   3.106   2.734   3.381
  231EMC      C 2771   2.491   1.850   0.299
  231EMC      C 2772   2.517   1.764   0.178
  231EMC      O 2773   2.591   1.647   0.214
  231EMC      C 2774   2.726   1.662   0.216
  231EMC      O 2775   2.788   1.763   0.190
  231EMC      O 2776   2.780   1.543   0.251
  231EMC      C 2777   2.923   1.543   0.258
  231EMC      H 2778   2.439   1.792   0.377
  231EMC      H 2779   2.429   1.937   0.273
  231EMC      H 2780   2.584   1.885   0.344
  231EMC      H 2781   2.421   1.730   0.135
  231EMC      H 2782   2.568   1.821   0.099
  231EMC      H 2783   2.966   1.567   0.159
  231EMC      H 2784   2.956   1.444   0.287
  231EMC      H 2785   2.958   1.615   0.333
  232EMC      C 2786   0.980   0.866   0.223
  232EMC      C 2787   0.835   0.823   0.228
  232EMC      O 2788   0.816   0.722   0.328
  232EMC      C 2789   0.838   0.595   0.287
  232EMC      O 2790   0.872   0.560   0.175
  232EMC      O 2791   0.817   0.512   0.392
  232EMC      C 2792   0.836   0.374   0.363
  232EMC      H 2793   1.014   0.900   0.321
  232EMC      H 2794   0.994   0.947   0.150
  232EMC      H 2795   1.045   0.783   0.194
  232EMC      H 2796   0.772   0.909   0.257
  232EMC      H 2797   0.799   0.790   0.130
  232EMC      H 2798   0.766   0.341   0.285
  232EMC      H 2799   0.816   0.317   0.454
  232EMC      H 2800   0.939   0.356   0.333
  233EMC      C 2801   2.454   3.246   2.841
  233EMC      C 2802   2.470   3.278   2.694
  233EMC      O 2803   2.454   3.418   2.671
  233EMC      C 2804   2.326   3.459   2.653
  233EMC      O 2805   2.227   3.390   2.654
  233EMC      O 2806   2.329   3.593   2.632
  233EMC      C 2807   2.200   3.651   2.611
  233EMC      H 2808   2.525   3.305   2.901
  233EMC      H 2809   2.472   3.139   2.860
  233EMC      H 2810   2.354   3.271   2.877
  233EMC      H 2811   2.572   3.251   2.661
  233EMC      H 2812   2.401   3.218   2.633
  233EMC      H 2813   2.152   3.609   2.521
  233EMC      H 2814   2.213   3.759   2.595
  233EMC      H 2815   2.136   3.637   2.698
  234EMC      C 2816   1.401   1.770   0.395
  234EMC      C 2817   1.552   1.780   0.384
  234EMC      O 2818   1.613   1.657   0.421
  234EMC      C 2819   1.638   1.643   0.555
  234EMC      O 2820   1.612   1.724   0.641
  234EMC      O 2821   1.695   1.521   0.573
  234EMC      C 2822   1.727   1.493   0.710
  234EMC      H 2823   1.364   1.686   0.335
  234EMC      H 2824   1.353   1.863   0.360
  234EMC      H 2825   1.370   1.752   0.498
  234EMC      H 2826   1.580   1.799   0.279
  234EMC      H 2827   1.591   1.865   0.442
  234EMC      H 2828   1.799   1.566   0.749
  234EMC      H 2829   1.773   1.394   0.714
  234EMC      H 2830   1.636   1.492   0.771
  235EMC      C 2831   2.750   3.811   0.949
  235EMC      C 2832   2.621   3.750   0.999
  235EMC      O 2833   2.647   3.631   1.073
  235EMC      C 2834   2.656   3.517   0.999
  235EMC      O 2835   2.644   3.509   0.879
  235EMC      O 2836   2.681   3.414   1.084
  235EMC      C 2837   2.692   3.287   1.019
  235EMC      H 2838   2.818   3.830   1.033
  235EMC      H 2839   2.731   3.906   0.897
  235EMC      H 2840   2.801   3.744   0.880
  235EMC      H 2841   2.571   3.820   1.068
  235EMC      H 2842   2.550   3.732   0.917
  235EMC      H 2843   2.599   3.261   0.968
  235EMC      H 2844   2.712   3.212   1.096
  235EMC      H 2845   2.776   3.288   0.949
  236EMC      C 2846   2.191   2.872   1.783
  236EMC      C 2847   2.264   2.749   1.833
  236EMC      O 2848   2.400   2.751   1.790
  236EMC      C 2849   2.423   2.698   1.666
  236EMC      O 2850   2.339   2.650   1.592
  236EMC      O 2851   2.556   2.708   1.641
  236EMC      C 2852   2.594   2.655   1.514
  236EMC      H 2853   2.242   2.963   1.816
  236EMC      H 2854   2.088   2.874   1.821
  236EMC      H 2855   2.187   2.874   1.674
  236EMC      H 2856   2.266   2.749   1.943
  236EMC      H 2857   2.213   2.657   1.802
  236EMC      H 2858   2.571   2.548   1.507
  236EMC      H 2859   2.702   2.667   1.503
  236EMC      H 2860   2.545   2.710   1.433
  237EMC      C 2861   1.855   2.320   2.878
  237EMC      C 2862   1.967   2.297   2.976
  237EMC      O 2863   2.046   2.415   2.991
  237EMC      C 2864   2.145   2.432   2.900
  237EMC      O 2865   2.173   2.356   2.810
  237EMC      O 2866   2.209   2.548   2.929
  237EMC      C 2867   2.317   2.578   2.841
  237EMC      H 2868   1.793   2.405   2.910
  237EMC      H 2869   1.791   2.231   2.871
  237EMC      H 2870   1.892   2.344   2.779
  237EMC      H 2871   1.926   2.272   3.075
  237EMC      H 2872   2.029   2.211   2.946
  237EMC      H 2873   2.395   2.500   2.846
  237EMC      H 2874   2.361   2.673   2.872
  237EMC      H 2875   2.281   2.589   2.738
  238EMC      C 2876   3.082   1.589   1.990
  238EMC      C 2877   2.974   1.694   1.998
  238EMC      O 2878   2.950   1.731   2.134
  238EMC      C 2879   2.860   1.654   2.200
  238EMC      O 2880   2.800   1.558   2.155
  238EMC      O 2881   2.849   1.702   2.326
  238EMC      C 2882   2.757   1.629   2.408
  238EMC      H 2883   3.174   1.624   2.039
  238EMC      H 2884   3.105   1.565   1.885
  238EMC      H 2885   3.052   1.497   2.041
  238EMC      H 2886   3.007   1.785   1.945
  238EMC      H 2887   2.882   1.661   1.948
  238EMC      H 2888   2.656   1.633   2.366
  238EMC      H 2889   2.755   1.676   2.507
  238EMC      H 2890   2.790   1.526   2.419
  239EMC      C 2891   2.855   2.415   0.326
  239EMC      C 2892   2.928   2.325   0.423
  239EMC      O 2893   3.035   2.395   0.486
  239EMC      C 2894   3.153   2.395   0.418
  239EMC      O 2895   3.174   2.342   0.311
  239EMC      O 2896   3.243   2.466   0.491
  239EMC      C 2897   3.372   2.474   0.431
  239EMC      H 2898   2.819   2.506   0.377
  239EMC      H 2899   2.769   2.363   0.281
  239EMC      H 2900   2.921   2.448   0.245
  239EMC      H 2901   2.859   2.293   0.502
  239EMC      H 2902   2.963   2.233   0.373
  239EMC      H 2903   3.416   2.373   0.420
  239EMC      H 2904   3.437   2.532   0.498
  239EMC      H 2905   3.367   2.525   0.335
  240EMC      C 2906   3.247   0.783   1.703
  240EMC      C 2907   3.210   0.855   1.831
  240EMC      O 2908   3.234   0.771   1.944
  240EMC      C 2909   3.131   0.687   1.977
  240EMC      O 2910   3.024   0.679   1.920
  240EMC      O 2911   3.169   0.615   2.085
  240EMC      C 2912   3.071   0.523   2.131
  240EMC      H 2913   3.352   0.749   1.707
  240EMC      H 2914   3.235   0.850   1.616
  240EMC      H 2915   3.186   0.695   1.688
  240EMC      H 2916   3.274   0.944   1.843
  240EMC      H 2917   3.106   0.891   1.828
  240EMC      H 2918   2.979   0.576   2.162
  240EMC      H 2919   3.111   0.471   2.218
  240EMC      H 2920   3.048   0.449   2.054
  241EMC      C 2921   2.710   0.184   3.609
  241EMC      C 2922   2.762   0.326   3.618
  241EMC      O 2923   2.803   0.373   3.489
  241EMC      C 2924   2.930   0.343   3.454
  241EMC      O 2925   3.011   0.281   3.521
  241EMC      O 2926   2.953   0.394   3.330
  241EMC      C 2927   3.084   0.370   3.280
  241EMC      H 2928   2.628   0.178   3.536
  241EMC      H 2929   2.674   0.150   3.706
  241EMC      H 2930   2.788   0.116   3.575
  241EMC      H 2931   2.682   0.393   3.653
  241EMC      H 2932   2.843   0.334   3.692
  241EMC      H 2933   3.160   0.416   3.345
  241EMC      H 2934   3.092   0.415   3.181
  241EMC      H 2935   3.102   0.263   3.270
  242EMC      C 2936   1.495   2.961   2.237
  242EMC      C 2937   1.430   3.006   2.109
  242EMC      O 2938   1.339   2.907   2.060
  242EMC      C 2939   1.395   2.810   1.983
  242EMC      O 2940   1.512   2.802   1.951
  242EMC      O 2941   1.297   2.725   1.946
  242EMC      C 2942   1.342   2.617   1.863
  242EMC      H 2943   1.418   2.937   2.313
  242EMC      H 2944   1.559   3.040   2.278
  242EMC      H 2945   1.555   2.872   2.222
  242EMC      H 2946   1.370   3.098   2.127
  242EMC      H 2947   1.505   3.033   2.033
  242EMC      H 2948   1.384   2.656   1.769
  242EMC      H 2949   1.256   2.555   1.839
  242EMC      H 2950   1.415   2.556   1.916
  243EMC      C 2951   0.397   1.294   3.004
  243EMC      C 2952   0.396   1.418   2.917
  243EMC      O 2953   0.528   1.450   2.874
  243EMC      C 2954   0.600   1.528   2.960
  243EMC      O 2955   0.562   1.571   3.067
  243EMC      O 2956   0.722   1.549   2.905
  243EMC      C 2957   0.808   1.630   2.985
  243EMC      H 2958   0.444   1.210   2.951
  243EMC      H 2959   0.295   1.265   3.032
  243EMC      H 2960   0.455   1.310   3.095
  243EMC      H 2961   0.337   1.398   2.826
  243EMC      H 2962   0.348   1.502   2.968
  243EMC      H 2963   0.765   1.730   3.000
  243EMC      H 2964   0.903   1.641   2.932
  243EMC      H 2965   0.828   1.582   3.081
  244EMC      C 2966   3.153   0.236   2.496
  244EMC      C 2967   3.056   0.315   2.580
  244EMC      O 2968   2.925   0.309   2.524
  244EMC      C 2969   2.898   0.403   2.429
  244EMC      O 2970   2.974   0.489   2.389
  244EMC      O 2971   2.771   0.384   2.386
  244EMC      C 2972   2.729   0.476   2.286
  244EMC      H 2973   3.119   0.132   2.484
  244EMC      H 2974   3.253   0.235   2.542
  244EMC      H 2975   3.162   0.278   2.396
  244EMC      H 2976   3.049   0.270   2.681
  244EMC      H 2977   3.090   0.418   2.594
  244EMC      H 2978   2.732   0.579   2.324
  244EMC      H 2979   2.626   0.452   2.258
  244EMC      H 2980   2.791   0.467   2.196
  245EMC      C 2981   1.798   2.451   1.858
  245EMC      C 2982   1.668   2.527   1.874
  245EMC      O 2983   1.684   2.664   1.839
  245EMC      C 2984   1.728   2.745   1.940
  245EMC      O 2985   1.753   2.710   2.053
  245EMC      O 2986   1.739   2.870   1.890
  245EMC      C 2987   1.784   2.966   1.986
  245EMC      H 2988   1.836   2.462   1.755
  245EMC      H 2989   1.784   2.344   1.878
  245EMC      H 2990   1.874   2.490   1.925
  245EMC      H 2991   1.592   2.485   1.805
  245EMC      H 2992   1.627   2.515   1.975
  245EMC      H 2993   1.713   2.974   2.070
  245EMC      H 2994   1.789   3.064   1.937
  245EMC      H 2995   1.884   2.941   2.022
  246EMC      C 2996   2.994   3.517   0.868
  246EMC      C 2997   3.117   3.437   0.832
  246EMC      O 2998   3.220   3.523   0.782
  246EMC      C 2999   3.213   3.548   0.648
  246EMC      O 3000   3.130   3.505   0.570
  246EMC      O 3001   3.317   3.630   0.616
  246EMC      C 3002   3.323   3.665   0.478
  246EMC      H 3003   3.019   3.597   0.940
  246EMC      H 3004   2.917   3.453   0.913
  246EMC      H 3005   2.951   3.566   0.781
  246EMC      H 3006   3.157   3.389   0.923
  246EMC      H 3007   3.093   3.356   0.762
  246EMC      H 3008   3.336   3.575   0.416
  246EMC      H 3009   3.409   3.730   0.463
  246EMC      H 3010   3.233   3.719   0.448
  247EMC      C 3011   2.721   1.942   1.391
  247EMC      C 3012   2.718   1.831   1.289
  247EMC      O 3013   2.826   1.739   1.311
  247EMC      C 3014   2.943   1.773   1.251
  247EMC      O 3015   2.963   1.872   1.182
  247EMC      O 3016   3.034   1.678   1.281
  247EMC      C 3017   3.163   1.701   1.224
  247EMC      H 3018   2.719   1.901   1.493
  247EMC      H 3019   2.634   2.008   1.379
  247EMC      H 3020   2.811   2.001   1.383
  247EMC      H 3021   2.624   1.773   1.300
  247EMC      H 3022   2.718   1.870   1.186
  247EMC      H 3023   3.157   1.702   1.114
  247EMC      H 3024   3.229   1.618   1.254
  247EMC      H 3025   3.206   1.794   1.261
  248EMC      C 3026   3.133   2.191   0.688
  248EMC      C 3027   3.246   2.157   0.594
  248EMC      O 3028   3.205   2.176   0.458
  248EMC      C 3029   3.142   2.070   0.401
  248EMC      O 3030   3.119   1.963   0.453
  248EMC      O 3031   3.110   2.104   0.273
  248EMC      C 3032   3.044   2.001   0.200
  248EMC      H 3033   3.098   2.294   0.671
  248EMC      H 3034   3.166   2.182   0.793
  248EMC      H 3035   3.047   2.125   0.673
  248EMC      H 3036   3.331   2.224   0.611
  248EMC      H 3037   3.283   2.055   0.611
  248EMC      H 3038   3.108   1.912   0.192
  248EMC      H 3039   3.023   2.038   0.100
  248EMC      H 3040   2.949   1.975   0.248
  249EMC      C 3041   1.376   1.288   3.876
  249EMC      C 3042   1.264   1.191   3.903
  249EMC      O 3043   1.313   1.075   3.970
  249EMC      C 3044   1.361   0.977   3.889
  249EMC      O 3045   1.365   0.979   3.768
  249EMC      O 3046   1.404   0.875   3.968
  249EMC      C 3047   1.457   0.764   3.896
  249EMC      H 3048   1.427   1.315   3.970
  249EMC      H 3049   1.337   1.380   3.830
  249EMC      H 3050   1.451   1.245   3.810
  249EMC      H 3051   1.189   1.237   3.969
  249EMC      H 3052   1.210   1.164   3.810
  249EMC      H 3053   1.380   0.720   3.830
  249EMC      H 3054   1.488   0.688   3.968
  249EMC      H 3055   1.544   0.794   3.838
  250EMC      C 3056   1.283   1.024   2.179
  250EMC      C 3057   1.392   1.023   2.074
  250EMC      O 3058   1.442   0.891   2.054
  250EMC      C 3059   1.541   0.853   2.139
  250EMC      O 3060   1.590   0.921   2.228
  250EMC      O 3061   1.577   0.726   2.108
  250EMC      C 3062   1.682   0.673   2.189
  250EMC      H 3063   1.202   0.954   2.151
  250EMC      H 3064   1.240   1.124   2.190
  250EMC      H 3065   1.321   0.992   2.276
  250EMC      H 3066   1.351   1.057   1.977
  250EMC      H 3067   1.472   1.094   2.100
  250EMC      H 3068   1.773   0.733   2.178
  250EMC      H 3069   1.703   0.571   2.155
  250EMC      H 3070   1.650   0.669   2.294
  251EMC      C 3071   0.901   2.276   2.639
  251EMC      C 3072   0.800   2.176   2.589
  251EMC      O 3073   0.677   2.240   2.557
  251EMC      C 3074   0.590   2.256   2.660
  251EMC      O 3075   0.608   2.220   2.775
  251EMC      O 3076   0.479   2.318   2.613
  251EMC      C 3077   0.379   2.341   2.713
  251EMC      H 3078   0.916   2.356   2.565
  251EMC      H 3079   0.998   2.228   2.658
  251EMC      H 3080   0.868   2.324   2.731
  251EMC      H 3081   0.837   2.129   2.496
  251EMC      H 3082   0.786   2.094   2.661
  251EMC      H 3083   0.344   2.245   2.754
  251EMC      H 3084   0.295   2.391   2.665
  251EMC      H 3085   0.417   2.405   2.792
  252EMC      C 3086   0.963   0.358   3.300
  252EMC      C 3087   1.077   0.331   3.204
  252EMC      O 3088   1.056   0.400   3.081
  252EMC      C 3089   0.980   0.333   2.990
  252EMC      O 3090   0.931   0.223   3.003
  252EMC      O 3091   0.970   0.412   2.879
  252EMC      C 3092   0.893   0.354   2.774
  252EMC      H 3093   0.951   0.466   3.316
  252EMC      H 3094   0.982   0.311   3.397
  252EMC      H 3095   0.868   0.321   3.261
  252EMC      H 3096   1.171   0.369   3.247
  252EMC      H 3097   1.091   0.223   3.189
  252EMC      H 3098   0.939   0.260   2.739
  252EMC      H 3099   0.891   0.424   2.691
  252EMC      H 3100   0.790   0.337   2.807
  253EMC      C 3101   0.844   1.744   1.238
  253EMC      C 3102   0.986   1.735   1.187
  253EMC      O 3103   1.037   1.602   1.203
  253EMC      C 3104   1.093   1.576   1.324
  253EMC      O 3105   1.104   1.654   1.417
  253EMC      O 3106   1.136   1.448   1.323
  253EMC      C 3107   1.198   1.406   1.445
  253EMC      H 3108   0.780   1.670   1.188
  253EMC      H 3109   0.803   1.844   1.220
  253EMC      H 3110   0.839   1.724   1.345
  253EMC      H 3111   0.988   1.757   1.079
  253EMC      H 3112   1.051   1.810   1.234
  253EMC      H 3113   1.288   1.467   1.465
  253EMC      H 3114   1.228   1.302   1.434
  253EMC      H 3115   1.127   1.413   1.528
  254EMC      C 3116   0.695   2.938   1.784
  254EMC      C 3117   0.675   3.018   1.911
  254EMC      O 3118   0.671   3.158   1.882
  254EMC      C 3119   0.792   3.220   1.878
  254EMC      O 3120   0.901   3.167   1.897
  254EMC      O 3121   0.772   3.350   1.850
  254EMC      C 3122   0.891   3.428   1.843
  254EMC      H 3123   0.616   2.962   1.711
  254EMC      H 3124   0.691   2.830   1.805
  254EMC      H 3125   0.790   2.961   1.738
  254EMC      H 3126   0.578   2.992   1.957
  254EMC      H 3127   0.751   2.994   1.986
  254EMC      H 3128   0.944   3.427   1.939
  254EMC      H 3129   0.864   3.531   1.820
  254EMC      H 3130   0.956   3.391   1.763
  255EMC      C 3131   2.260   0.804   2.662
  255EMC      C 3132   2.298   0.903   2.555
  255EMC      O 3133   2.431   0.878   2.508
  255EMC      C 3134   2.530   0.938   2.579
  255EMC      O 3135   2.515   1.009   2.677
  255EMC      O 3136   2.648   0.905   2.522
  255EMC      C 3137   2.762   0.962   2.588
  255EMC      H 3138   2.271   0.701   2.625
  255EMC      H 3139   2.156   0.819   2.694
  255EMC      H 3140   2.325   0.813   2.750
  255EMC      H 3141   2.231   0.891   2.468
  255EMC      H 3142   2.286   1.007   2.590
  255EMC      H 3143   2.758   1.071   2.584
  255EMC      H 3144   2.851   0.929   2.534
  255EMC      H 3145   2.769   0.926   2.691
  256FEC      O 3146   1.389   2.654   0.357
  256FEC      C 3147   1.268   2.657   0.370
  256FEC      O 3148   1.199   2.588   0.466
  256FEC      C 3149   1.064   2.633   0.460
  256FEC      C 3150   1.054   2.686   0.320
  256FEC      F 3151   1.025   2.587   0.233
  256FEC      O 3152   1.184   2.731   0.291
  256FEC      H 3153   1.051   2.711   0.535
  256FEC      H 3154   0.996   2.550   0.478
  256FEC      H 3155   0.980   2.766   0.309
  257FEC      O 3156   2.454   3.800   0.658
  257FEC      C 3157   2.406   3.690   0.640
  257FEC      O 3158   2.474   3.585   0.585
  257FEC      C 3159   2.391   3.470   0.600
  257FEC      C 3160   2.255   3.531   0.614
  257FEC      F 3161   2.201   3.555   0.492
  257FEC      O 3162   2.279   3.656   0.674
  257FEC      H 3163   2.422   3.417   0.690
  257FEC      H 3164   2.400   3.406   0.512
  257FEC      H 3165   2.186   3.469   0.672
  258FEC      O 3166   0.708   0.173   3.091
  258FEC      C 3167   0.697   0.290   3.122
  258FEC      O 3168   0.624   0.335   3.228
  258FEC      C 3169   0.653   0.473   3.243
  258FEC      C 3170   0.702   0.510   3.107
  258FEC      F 3171   0.597   0.541   3.025
  258FEC      O 3172   0.760   0.392   3.057
  258FEC      H 3173   0.731   0.483   3.319
  258FEC      H 3174   0.563   0.527   3.272
  258FEC      H 3175   0.773   0.594   3.107
  259FEC      O 3176   2.601   1.500   2.784
  259FEC      C 3177   2.549   1.594   2.843
  259FEC      O 3178   2.448   1.671   2.793
  259FEC      C 3179   2.403   1.754   2.899
  259FEC      C 3180   2.522   1.756   2.991
  259FEC      F 3181   2.610   1.852   2.953
  259FEC      O 3182   2.584   1.631   2.970
  259FEC      H 3183   2.317   1.706   2.945
  259FEC      H 3184   2.378   1.853   2.862
  259FEC      H 3185   2.496   1.772   3.096
  260FEC      O 3186   1.129   1.337   0.447
  260FEC      C 3187   1.191   1.253   0.384
  260FEC      O 3188   1.194   1.120   0.415
  260FEC      C 3189   1.259   1.055   0.307
  260FEC      C 3190   1.338   1.165   0.245
  260FEC      F 3191   1.458   1.180   0.308
  260FEC      O 3192   1.263   1.281   0.271
  260FEC      H 3193   1.182   1.016   0.240
  260FEC      H 3194   1.323   0.974   0.345
  260FEC      H 3195   1.356   1.151   0.138
  261FEC      O 3196   2.334   1.091   3.906
  261FEC      C 3197   2.306   0.976   3.879
  261FEC      O 3198   2.318   0.921   3.755
  261FEC      C 3199   2.296   0.781   3.769
  261FEC      C 3200   2.218   0.773   3.897
  261FEC      F 3201   2.086   0.792   3.873
  261FEC      O 3202   2.263   0.884   3.971
  261FEC      H 3203   2.393   0.732   3.777
  261FEC      H 3204   2.240   0.743   3.684
  261FEC      H 3205   2.232   0.679   3.951
  262FEC      O 3206   0.460   0.853   0.096
  262FEC      C 3207   0.381   0.918   0.162
  262FEC      O 3208   0.405   1.043   0.211
  262FEC      C 3209   0.282   1.091   0.263
  262FEC      C 3210   0.206   0.965   0.290
  262FEC      F 3211   0.239   0.914   0.412
  262FEC      O 3212   0.255   0.874   0.193
  262FEC      H 3213   0.234   1.152   0.187
  262FEC      H 3214   0.299   1.148   0.354
  262FEC      H 3215   0.097   0.976   0.284
  263FEC      O 3216   3.054   1.958   3.970
  263FEC      C 3217   3.113   1.877   3.902
  263FEC      O 3218   3.249   1.873   3.886
  263FEC      C 3219   3.279   1.754   3.816
  263FEC      C 3220   3.150   1.723   3.747
  263FEC      F 3221   3.142   1.790   3.630
  263FEC      O 3222   3.052   1.776   3.833
  263FEC      H 3223   3.306   1.677   3.890
  263FEC      H 3224   3.361   1.771   3.746
  263FEC      H 3225   3.135   1.616   3.729
  264FEC      O 3226   2.121   3.252   0.655
  264FEC      C 3227   2.079   3.213   0.548
  264FEC      O 3228   2.123   3.099   0.485
  264FEC      C 3229   2.036   3.077   0.375
  264FEC      C 3230   1.981   3.214   0.350
  264FEC      F 3231   2.064   3.286   0.270
  264FEC      O 3232   1.980   3.275   0.476
  264FEC      H 3233   1.959   3.006   0.405
  264FEC      H 3234   2.093   3.039   0.290
  264FEC      H 3235   1.881   3.213   0.304
  265FEC      O 3236   2.035   2.109   2.242
  265FEC      C 3237   2.012   2.228   2.241
  265FEC      O 3238   1.899   2.285   2.190
  265FEC      C 3239   1.902   2.422   2.226
  265FEC      C 3240   2.047   2.447   2.249
  265FEC      F 3241   2.111   2.475   2.133
  265FEC      O 3242   2.096   2.322   2.294
  265FEC      H 3243   1.842   2.435   2.316
  265FEC      H 3244   1.862   2.483   2.144
  265FEC      H 3245   2.067   2.527   2.322
  266FEC      O 3246   0.476   0.419   0.803
  266FEC      C 3247   0.368   0.413   0.746
  266FEC      O 3248   0.297   0.298   0.726
  266FEC      C 3249   0.170   0.337   0.675
  266FEC      C 3250   0.198   0.472   0.618
  266FEC      F 3251   0.245   0.462   0.492
  266FEC      O 3252   0.302   0.523   0.698
  266FEC      H 3253   0.100   0.341   0.759
  266FEC      H 3254   0.137   0.266   0.600
  266FEC      H 3255   0.110   0.539   0.618
  267FEC      O 3256   3.621   3.179   0.405
  267FEC      C 3257   3.519   3.227   0.451
  267FEC      O 3258   3.497   3.248   0.585
  267FEC      C 3259   3.378   3.324   0.596
  267FEC      C 3260   3.309   3.295   0.466
  267FEC      F 3261   3.237   3.181   0.474
  267FEC      O 3262   3.414   3.272   0.375
  267FEC      H 3263   3.406   3.429   0.605
  267FEC      H 3264   3.320   3.291   0.682
  267FEC      H 3265   3.243   3.376   0.432
  268FEC      O 3266   1.924   2.692   1.854
  268FEC      C 3267   1.885   2.732   1.746
  268FEC      O 3268   1.869   2.863   1.713
  268FEC      C 3269   1.843   2.868   1.573
  268FEC      C 3270   1.791   2.731   1.545
  268FEC      F 3271   1.658   2.723   1.571
  268FEC      O 3272   1.856   2.649   1.641
  268FEC      H 3273   1.937   2.888   1.522
  268FEC      H 3274   1.769   2.945   1.552
  268FEC      H 3275   1.810   2.697   1.443
  269FEC      O 3276   2.203   3.050   2.014
  269FEC      C 3277   2.170   3.168   2.007
  269FEC      O 3278   2.047   3.212   1.966
  269FEC      C 3279   2.043   3.351   1.993
  269FEC      C 3280   2.188   3.388   1.997
  269FEC      F 3281   2.235   3.413   1.872
  269FEC      O 3282   2.252   3.271   2.044
  269FEC      H 3283   1.993   3.366   2.089
  269FEC      H 3284   1.989   3.403   1.913
  269FEC      H 3285   2.209   3.474   2.061
  270FEC      O 3286   1.273   3.050   3.320
  270FEC      C 3287   1.341   3.092   3.412
  270FEC      O 3288   1.325   3.055   3.543
  270FEC      C 3289   1.435   3.109   3.614
  270FEC      C 3290   1.479   3.222   3.526
  270FEC      F 3291   1.406   3.334   3.552
  270FEC      O 3292   1.444   3.180   3.396
  270FEC      H 3293   1.512   3.032   3.623
  270FEC      H 3294   1.403   3.143   3.713
  270FEC      H 3295   1.585   3.246   3.535
  271FEC      O 3296   3.732   2.952   3.500
  271FEC      C 3297   3.670   3.056   3.506
  271FEC      O 3298   3.716   3.177   3.461
  271FEC      C 3299   3.607   3.268   3.468
  271FEC      C 3300   3.518   3.205   3.570
  271FEC      F 3301   3.557   3.241   3.696
  271FEC      O 3302   3.543   3.067   3.557
  271FEC      H 3303   3.560   3.272   3.369
  271FEC      H 3304   3.643   3.366   3.498
  271FEC      H 3305   3.412   3.229   3.557
  272FEC      O 3306   2.585   3.214   3.095
  272FEC      C 3307   2.672   3.175   3.019
  272FEC      O 3308   2.753   3.256   2.945
  272FEC      C 3309   2.853   3.173   2.888
  272FEC      C 3310   2.789   3.038   2.890
  272FEC      F 3311   2.711   3.020   2.781
  272FEC      O 3312   2.703   3.042   3.002
  272FEC      H 3313   2.941   3.178   2.951
  272FEC      H 3314   2.876   3.207   2.786
  272FEC      H 3315   2.861   2.956   2.897
  273FEC      O 3316   1.639   3.147   1.028
  273FEC      C 3317   1.593   3.218   0.941
  273FEC      O 3318   1.506   3.175   0.844
  273FEC      C 3319   1.461   3.290   0.775
  273FEC      C 3320   1.569   3.390   0.803
  273FEC      F 3321   1.670   3.376   0.714
  273FEC      O 3322   1.619   3.352   0.929
  273FEC      H 3323   1.365   3.320   0.819
  273FEC      H 3324   1.450   3.269   0.669
  273FEC      H 3325   1.534   3.494   0.802
  274FEC      O 3326   3.043   1.303   3.498
  274FEC      C 3327   3.018   1.272   3.383
  274FEC      O 3328   3.100   1.195   3.305
  274FEC      C 3329   3.027   1.166   3.187
  274FEC      C 3330   2.926   1.276   3.182
  274FEC      F 3331   2.979   1.386   3.123
  274FEC      O 3332   2.904   1.308   3.317
  274FEC      H 3333   2.981   1.067   3.199
  274FEC      H 3334   3.094   1.166   3.100
  274FEC      H 3335   2.834   1.248   3.130
  275FEC      O 3336   3.145   1.052   1.991
  275FEC      C 3337   3.070   1.025   2.083
  275FEC      O 3338   3.088   1.067   2.212
  275FEC      C 3339   2.970   1.032   2.283
  275FEC      C 3340   2.914   0.921   2.200
  275FEC      F 3341   2.970   0.802   2.234
  275FEC      O 3342   2.956   0.951   2.069
  275FEC      H 3343   2.905   1.119   2.286
  275FEC      H 3344   2.996   0.999   2.384
  275FEC      H 3345   2.805   0.912   2.207
  276FEC      O 3346   2.870   2.077   0.860
  276FEC      C 3347   2.864   1.958   0.884
  276FEC      O 3348   2.940   1.863   0.822
  276FEC      C 3349   2.918   1.741   0.891
  276FEC      C 3350   2.786   1.764   0.956
  276FEC      F 3351   2.684   1.734   0.871
  276FEC      O 3352   2.782   1.903   0.979
  276FEC      H 3353   2.999   1.728   0.964
  276FEC      H 3354   2.916   1.658   0.821
  276FEC      H 3355   2.772   1.707   1.049
  277FEC      O 3356   2.538   1.567   3.759
  277FEC      C 3357   2.654   1.602   3.759
  277FEC      O 3358   2.758   1.524   3.803
  277FEC      C 3359   2.878   1.592   3.767
  277FEC      C 3360   2.832   1.734   3.753
  277FEC      F 3361   2.831   1.796   3.874
  277FEC      O 3362   2.697   1.723   3.712
  277FEC      H 3363   2.913   1.551   3.673
  277FEC      H 3364   2.952   1.580   3.846
  277FEC      H 3365   2.892   1.792   3.683
  278FEC      O 3366   1.880   2.435   0.915
  278FEC      C 3367   1.769   2.396   0.883
  278FEC      O 3368   1.653   2.439   0.941
  278FEC      C 3369   1.546   2.386   0.863
  278FEC      C 3370   1.610   2.268   0.797
  278FEC      F 3371   1.606   2.159   0.878
  278FEC      O 3372   1.745   2.305   0.783
  278FEC      H 3373   1.515   2.462   0.792
  278FEC      H 3374   1.463   2.357   0.928
  278FEC      H 3375   1.565   2.242   0.700
  279FEC      O 3376   3.021   1.899   2.638
  279FEC      C 3377   2.951   1.814   2.691
  279FEC      O 3378   2.881   1.833   2.807
  279FEC      C 3379   2.798   1.719   2.823
  279FEC      C 3380   2.868   1.616   2.742
  279FEC      F 3381   2.966   1.556   2.815
  279FEC      O 3382   2.932   1.689   2.640
  279FEC      H 3383   2.699   1.743   2.783
  279FEC      H 3384   2.792   1.693   2.929
  279FEC      H 3385   2.802   1.539   2.702
  280FEC      O 3386   3.337   1.024   1.195
  280FEC      C 3387   3.387   1.092   1.108
  280FEC      O 3388   3.376   1.228   1.100
  280FEC      C 3389   3.464   1.271   0.998
  280FEC      C 3390   3.481   1.147   0.915
  280FEC      F 3391   3.380   1.136   0.824
  280FEC      O 3392   3.465   1.042   1.007
  280FEC      H 3393   3.558   1.302   1.045
  280FEC      H 3394   3.420   1.353   0.941
  280FEC      H 3395   3.577   1.142   0.863
  281FEC      O 3396   0.816   2.256   3.574
  281FEC      C 3397   0.905   2.182   3.612
  281FEC      O 3398   0.921   2.140   3.741
  281FEC      C 3399   1.022   2.040   3.740
  281FEC      C 3400   1.096   2.071   3.614
  281FEC      F 3401   1.191   2.166   3.635
  281FEC      O 3402   0.999   2.127   3.529
  281FEC      H 3403   0.973   1.943   3.736
  281FEC      H 3404   1.085   2.049   3.828
  281FEC      H 3405   1.144   1.983   3.568
  282FEC      O 3406   2.886   2.160   2.464
  282FEC      C 3407   2.788   2.219   2.424
  282FEC      O 3408   2.709   2.178   2.320
  282FEC      C 3409   2.595   2.262   2.319
  282FEC      C 3410   2.644   2.384   2.391
  282FEC      F 3411   2.707   2.468   2.305
  282FEC      O 3412   2.741   2.335   2.480
  282FEC      H 3413   2.515   2.211   2.373
  282FEC      H 3414   2.565   2.283   2.216
  282FEC      H 3415   2.564   2.439   2.442
  283FEC      O 3416   0.448   0.602   2.085
  283FEC      C 3417   0.453   0.493   2.031
  283FEC      O 3418   0.349   0.434   1.965
  283FEC      C 3419   0.401   0.319   1.900
  283FEC      C 3420   0.524   0.289   1.980
  283FEC      F 3421   0.493   0.214   2.089
  283FEC      O 3422   0.566   0.415   2.027
  283FEC      H 3423   0.425   0.346   1.797
  283FEC      H 3424   0.329   0.238   1.903
  283FEC      H 3425   0.602   0.238   1.923
  284FEC      O 3426   3.339   0.370   3.465
  284FEC      C 3427   3.368   0.489   3.458
  284FEC      O 3428   3.284   0.586   3.411
  284FEC      C 3429   3.346   0.710   3.440
  284FEC      C 3430   3.490   0.673   3.453
  284FEC      F 3431   3.550   0.670   3.331
  284FEC      O 3432   3.487   0.540   3.501
  284FEC      H 3433   3.304   0.749   3.533
  284FEC      H 3434   3.329   0.780   3.358
  284FEC      H 3435   3.547   0.739   3.520
  285FEC      O 3436   3.735   2.734   3.472
  285FEC      C 3437   3.632   2.717   3.534
  285FEC      O 3438   3.598   2.785   3.647
  285FEC      C 3439   3.463   2.751   3.677
  285FEC      C 3440   3.446   2.621   3.607
  285FEC      F 3441   3.490   2.518   3.685
  285FEC      O 3442   3.534   2.628   3.497
  285FEC      H 3443   3.399   2.829   3.635
  285FEC      H 3444   3.449   2.743   3.784
  285FEC      H 3445   3.343   2.600   3.575
  286FEC      O 3446   1.923   1.359   1.691
  286FEC      C 3447   1.965   1.245   1.705
  286FEC      O 3448   2.096   1.209   1.693
  286FEC      C 3449   2.106   1.074   1.737
  286FEC      C 3450   1.966   1.024   1.719
  286FEC      F 3451   1.946   0.982   1.591
  286FEC      O 3452   1.885   1.138   1.738
  286FEC      H 3453   2.137   1.074   1.841
  286FEC      H 3454   2.177   1.020   1.675
  286FEC      H 3455   1.939   0.943   1.788
  287FEC      O 3456   0.296   1.461   2.410
  287FEC      C 3457   0.354   1.379   2.478
  287FEC      O 3458   0.382   1.394   2.611
  287FEC      C 3459   0.432   1.269   2.657
  287FEC      C 3460   0.482   1.206   2.531
  287FEC      F 3461   0.608   1.247   2.503
  287FEC      O 3462   0.398   1.258   2.430
  287FEC      H 3463   0.349   1.213   2.701
  287FEC      H 3464   0.511   1.285   2.730
  287FEC      H 3465   0.480   1.096   2.533
  288FEC      O 3466   0.800   1.514   3.764
  288FEC      C 3467   0.879   1.451   3.696
  288FEC      O 3468   0.852   1.403   3.571
  288FEC      C 3469   0.975   1.355   3.518
  288FEC      C 3470   1.056   1.330   3.641
  288FEC      F 3471   1.030   1.207   3.692
  288FEC      O 3472   1.008   1.424   3.734
  288FEC      H 3473   1.018   1.434   3.456
  288FEC      H 3474   0.958   1.264   3.460
  288FEC      H 3475   1.164   1.340   3.625
  289FEC      O 3476   0.768   0.262   2.600
  289FEC      C 3477   0.647   0.250   2.597
  289FEC      O 3478   0.571   0.212   2.703
  289FEC      C 3479   0.435   0.230   2.665
  289FEC      C 3480   0.443   0.227   2.516
  289FEC      F 3481   0.438   0.099   2.470
  289FEC      O 3482   0.571   0.278   2.486
  289FEC      H 3483   0.402   0.327   2.703
  289FEC      H 3484   0.373   0.150   2.705
  289FEC      H 3485   0.364   0.285   2.467
  290FEC      O 3486   0.864   1.742   3.352
  290FEC      C 3487   0.785   1.794   3.275
  290FEC      O 3488   0.783   1.927   3.245
  290FEC      C 3489   0.691   1.944   3.139
  290FEC      C 3490   0.604   1.823   3.151
  290FEC      F 3491   0.504   1.845   3.241
  290FEC      O 3492   0.689   1.725   3.206
  290FEC      H 3493   0.747   1.945   3.045
  290FEC      H 3494   0.635   2.037   3.151
  290FEC      H 3495   0.559   1.790   3.057
  291FEC      O 3496   1.712   3.202   2.356
  291FEC      C 3497   1.787   3.106   2.350
  291FEC      O 3498   1.917   3.112   2.309
  291FEC      C 3499   1.974   2.985   2.337
  291FEC      C 3500   1.855   2.896   2.344
  291FEC      F 3501   1.820   2.853   2.220
  291FEC      O 3502   1.751   2.980   2.389
  291FEC      H 3503   2.026   2.992   2.433
  291FEC      H 3504   2.043   2.956   2.258
  291FEC      H 3505   1.868   2.809   2.409
  292FEC      O 3506   2.093   1.267   0.690
  292FEC      C 3507   2.114   1.384   0.719
  292FEC      O 3508   2.221   1.428   0.791
  292FEC      C 3509   2.220   1.569   0.785
  292FEC      C 3510   2.076   1.599   0.755
  292FEC      F 3511   2.003   1.602   0.869
  292FEC      O 3512   2.033   1.487   0.681
  292FEC      H 3513   2.286   1.601   0.705
  292FEC      H 3514   2.252   1.611   0.881
  292FEC      H 3515   2.061   1.693   0.700
  293FEC      O 3516   2.929   0.869   0.100
  293FEC      C 3517   2.834   0.899   0.170
  293FEC      O 3518   2.804   0.838   0.289
  293FEC      C 3519   2.700   0.914   0.349
  293FEC      C 3520   2.640   0.984   0.232
  293FEC      F 3521   2.547   0.905   0.172
  293FEC      O 3522   2.746   1.000   0.142
  293FEC      H 3523   2.746   0.983   0.420
  293FEC      H 3524   2.630   0.847   0.400
  293FEC      H 3525   2.593   1.080   0.258
  294FEC      O 3526   2.635   1.288   1.213
  294FEC      C 3527   2.530   1.334   1.254
  294FEC      O 3528   2.407   1.281   1.226
  294FEC      C 3529   2.314   1.351   1.308
  294FEC      C 3530   2.385   1.479   1.338
  294FEC      F 3531   2.365   1.569   1.238
  294FEC      O 3532   2.522   1.444   1.335
  294FEC      H 3533   2.296   1.291   1.398
  294FEC      H 3534   2.221   1.367   1.254
  294FEC      H 3535   2.356   1.524   1.433
  295FEC      O 3536   0.696   2.452   2.633
  295FEC      C 3537   0.708   2.525   2.536
  295FEC      O 3538   0.606   2.596   2.478
  295FEC      C 3539   0.666   2.682   2.383
  295FEC      C 3540   0.795   2.615   2.353
  295FEC      F 3541   0.779   2.519   2.258
  295FEC      O 3542   0.828   2.548   2.473
  295FEC      H 3543   0.679   2.780   2.429
  295FEC      H 3544   0.602   2.690   2.295
  295FEC      H 3545   0.875   2.684   2.322
  296FEC      O 3546   3.404   3.594   3.504
  296FEC      C 3547   3.482   3.567   3.414
  296FEC      O 3548   3.600   3.631   3.392
  296FEC      C 3549   3.670   3.557   3.294
  296FEC      C 3550   3.560   3.483   3.225
  296FEC      F 3551   3.503   3.559   3.128
  296FEC      O 3552   3.463   3.464   3.325
  296FEC      H 3553   3.740   3.490   3.344
  296FEC      H 3554   3.723   3.625   3.226
  296FEC      H 3555   3.592   3.387   3.181
  297FEC      O 3556   3.286   2.442   3.720
  297FEC      C 3557   3.270   2.326   3.752
  297FEC      O 3558   3.221   2.285   3.874
  297FEC      C 3559   3.198   2.146   3.864
  297FEC      C 3560   3.289   2.105   3.752
  297FEC      F 3561   3.414   2.082   3.799
  297FEC      O 3562   3.295   2.219   3.670
  297FEC      H 3563   3.093   2.130   3.840
  297FEC      H 3564   3.224   2.097   3.958
  297FEC      H 3565   3.254   2.017   3.697
  298FEC      O 3566   2.334   2.291   1.154
  298FEC      C 3567   2.227   2.246   1.118
  298FEC      O 3568   2.200   2.112   1.104
  298FEC      C 3569   2.060   2.101   1.081
  298FEC      C 3570   2.025   2.237   1.029
  298FEC      F 3571   2.047   2.244   0.895
  298FEC      O 3572   2.117   2.323   1.091
  298FEC      H 3573   2.012   2.079   1.176
  298FEC      H 3574   2.040   2.022   1.008
  298FEC      H 3575   1.921   2.266   1.050
  299FEC      O 3576   3.042   0.836   1.163
  299FEC      C 3577   2.987   0.803   1.059
  299FEC      O 3578   3.053   0.776   0.942
  299FEC      C 3579   2.958   0.721   0.853
  299FEC      C 3580   2.829   0.772   0.908
  299FEC      F 3581   2.802   0.897   0.861
  299FEC      O 3582   2.852   0.784   1.046
  299FEC      H 3583   2.964   0.612   0.858
  299FEC      H 3584   2.977   0.757   0.751
  299FEC      H 3585   2.743   0.707   0.887
  300FEC      O 3586   1.495   1.199   2.667
  300FEC      C 3587   1.609   1.158   2.684
  300FEC      O 3588   1.720   1.218   2.632
  300FEC      C 3589   1.832   1.153   2.692
  300FEC      C 3590   1.776   1.022   2.734
  300FEC      F 3591   1.779   0.933   2.631
  300FEC      O 3592   1.640   1.049   2.761
  300FEC      H 3593   1.865   1.214   2.777
  300FEC      H 3594   1.912   1.143   2.618
  300FEC      H 3595   1.826   0.978   2.820
  301FEC      O 3596   0.759   1.450   3.971
  301FEC      C 3597   0.695   1.358   3.923
  301FEC      O 3598   0.712   1.227   3.957
  301FEC      C 3599   0.606   1.155   3.895
  301FEC      C 3600   0.566   1.245   3.783
  301FEC      F 3601   0.644   1.224   3.674
  301FEC      O 3602   0.595   1.374   3.831
  301FEC      H 3603   0.527   1.142   3.969
  301FEC      H 3604   0.642   1.058   3.860
  301FEC      H 3605   0.461   1.235   3.754
  302FEC      O 3606   2.611   0.680   3.646
  302FEC      C 3607   2.733   0.679   3.650
  302FEC      O 3608   2.812   0.787   3.622
  302FEC      C 3609   2.945   0.751   3.659
  302FEC      C 3610   2.940   0.602   3.654
  302FEC      F 3611   2.962   0.557   3.528
  302FEC      O 3612   2.807   0.570   3.687
  302FEC      H 3613   2.964   0.789   3.759
  302FEC      H 3614   3.016   0.793   3.587
  302FEC      H 3615   3.012   0.554   3.722
  303FEC      O 3616   3.889   0.226   0.495
  303FEC      C 3617   3.807   0.232   0.405
  303FEC      O 3618   3.799   0.142   0.302
  303FEC      C 3619   3.679   0.172   0.232
  303FEC      C 3620   3.655   0.315   0.268
  303FEC      F 3621   3.724   0.398   0.186
  303FEC      O 3622   3.710   0.328   0.397
  303FEC      H 3623   3.601   0.105   0.269
  303FEC      H 3624   3.695   0.158   0.124
  303FEC      H 3625   3.549   0.343   0.265
  304FEC      O 3626   1.879   0.153   3.592
  304FEC      C 3627   1.770   0.203   3.568
  304FEC      O 3628   1.742   0.336   3.580
  304FEC      C 3629   1.612   0.355   3.525
  304FEC      C 3630   1.552   0.219   3.535
  304FEC      F 3631   1.497   0.200   3.658
  304FEC      O 3632   1.662   0.131   3.525
  304FEC      H 3633   1.624   0.388   3.421
  304FEC      H 3634   1.558   0.430   3.583
  304FEC      H 3635   1.476   0.199   3.459
  305FEC      O 3636   2.689   2.148   1.165
  305FEC      C 3637   2.674   2.198   1.275
  305FEC      O 3638   2.776   2.231   1.360
  305FEC      C 3639   2.719   2.305   1.466
  305FEC      C 3640   2.576   2.262   1.463
  305FEC      F 3641   2.559   2.147   1.532
  305FEC      O 3642   2.552   2.232   1.327
  305FEC      H 3643   2.731   2.411   1.444
  305FEC      H 3644   2.768   2.279   1.560
  305FEC      H 3645   2.506   2.338   1.501
  306FEC      O 3646   3.970   2.230   2.086
  306FEC      C 3647   3.931   2.335   2.037
  306FEC      O 3648   3.962   2.377   1.911
  306FEC      C 3649   3.882   2.492   1.885
  306FEC      C 3650   3.849   2.540   2.023
  306FEC      F 3651   3.948   2.620   2.070
  306FEC      O 3652   3.848   2.423   2.101
  306FEC      H 3653   3.793   2.459   1.830
  306FEC      H 3654   3.938   2.565   1.828
  306FEC      H 3655   3.754   2.594   2.029
  307FEC      O 3656   3.087   3.512   2.938
  307FEC      C 3657   3.081   3.524   3.059
  307FEC      O 3658   2.974   3.487   3.135
  307FEC      C 3659   3.015   3.497   3.271
  307FEC      C 3660   3.129   3.593   3.263
  307FEC      F 3661   3.085   3.721   3.267
  307FEC      O 3662   3.184   3.572   3.135
  307FEC      H 3663   3.046   3.397   3.304
  307FEC      H 3664   2.933   3.534   3.332
  307FEC      H 3665   3.204   3.578   3.343
  308FEC      O 3666   2.627   3.747   2.380
  308FEC      C 3667   2.542   3.674   2.334
  308FEC      O 3668   2.426   3.717   2.275
  308FEC      C 3669   2.364   3.603   2.217
  308FEC      C 3670   2.424   3.490   2.296
  308FEC      F 3671   2.354   3.471   2.411
  308FEC      O 3672   2.552   3.537   2.333
  308FEC      H 3673   2.392   3.599   2.112
  308FEC      H 3674   2.256   3.609   2.229
  308FEC      H 3675   2.429   3.396   2.241
  309FEC      O 3676   3.064   0.625   1.519
  309FEC      C 3677   3.035   0.553   1.613
  309FEC      O 3678   2.940   0.584   1.707
  309FEC      C 3679   2.922   0.468   1.786
  309FEC      C 3680   3.050   0.394   1.766
  309FEC      F 3681   3.145   0.439   1.852
  309FEC      O 3682   3.091   0.431   1.636
  309FEC      H 3683   2.836   0.413   1.747
  309FEC      H 3684   2.906   0.496   1.890
  309FEC      H 3685   3.041   0.285   1.777
  310FEC      O 3686   1.373   1.048   1.723
  310FEC      C 3687   1.408   0.940   1.767
  310FEC      O 3688   1.523   0.876   1.731
  310FEC      C 3689   1.537   0.765   1.818
  310FEC      C 3690   1.397   0.742   1.865
  310FEC      F 3691   1.328   0.664   1.777
  310FEC      O 3692   1.338   0.870   1.862
  310FEC      H 3693   1.603   0.794   1.900
  310FEC      H 3694   1.577   0.679   1.764
  310FEC      H 3695   1.390   0.697   1.965
  311FEC      O 3696   3.365   0.472   2.264
  311FEC      C 3697   3.425   0.557   2.201
  311FEC      O 3698   3.390   0.598   2.075
  311FEC      C 3699   3.471   0.711   2.045
  311FEC      C 3700   3.587   0.694   2.137
  311FEC      F 3701   3.680   0.612   2.082
  311FEC      O 3702   3.533   0.626   2.249
  311FEC      H 3703   3.413   0.801   2.068
  311FEC      H 3704   3.500   0.710   1.940
  311FEC      H 3705   3.635   0.788   2.166
  312FEC      O 3706   3.364   1.446   1.394
  312FEC      C 3707   3.327   1.337   1.434
  312FEC      O 3708   3.201   1.287   1.416
  312FEC      C 3709   3.204   1.151   1.458
  312FEC      C 3710   3.322   1.148   1.550
  312FEC      F 3711   3.286   1.186   1.675
  312FEC      O 3712   3.408   1.248   1.500
  312FEC      H 3713   3.219   1.089   1.369
  312FEC      H 3714   3.111   1.125   1.508
  312FEC      H 3715   3.371   1.050   1.555
  313FEC      O 3716   0.953   0.648   3.616
  313FEC      C 3717   0.975   0.767   3.602
  313FEC      O 3718   0.883   0.858   3.558
  313FEC      C 3719   0.941   0.986   3.576
  313FEC      C 3720   1.087   0.956   3.579
  313FEC      F 3721   1.138   0.950   3.453
  313FEC      O 3722   1.095   0.826   3.633
  313FEC      H 3723   0.905   1.027   3.671
  313FEC      H 3724   0.914   1.051   3.493
  313FEC      H 3725   1.146   1.027   3.638
  314FEC      O 3726   0.177   0.423   0.198
  314FEC      C 3727   0.282   0.363   0.206
  314FEC      O 3728   0.349   0.310   0.100
  314FEC      C 3729   0.476   0.267   0.148
  314FEC      C 3730   0.451   0.250   0.295
  314FEC      F 3731   0.399   0.127   0.320
  314FEC      O 3732   0.350   0.344   0.324
  314FEC      H 3733   0.548   0.346   0.128
  314FEC      H 3734   0.505   0.174   0.100
  314FEC      H 3735   0.540   0.265   0.357
  315FEC      O 3736   1.489   2.513   3.381
  315FEC      C 3737   1.462   2.615   3.321
  315FEC      O 3738   1.344   2.638   3.257
  315FEC      C 3739   1.345   2.775   3.217
  315FEC      C 3740   1.491   2.806   3.213
  315FEC      F 3741   1.544   2.770   3.094
  315FEC      O 3742   1.547   2.722   3.311
  315FEC      H 3743   1.292   2.833   3.293
  315FEC      H 3744   1.297   2.786   3.120
  315FEC      H 3745   1.514   2.912   3.232
  316FEC      O 3746   1.130   1.607   2.412
  316FEC      C 3747   1.073   1.622   2.518
  316FEC      O 3748   0.987   1.530   2.573
  316FEC      C 3749   0.959   1.575   2.705
  316FEC      C 3750   0.988   1.721   2.697
  316FEC      F 3751   0.880   1.789   2.650
  316FEC      O 3752   1.089   1.731   2.599
  316FEC      H 3753   1.026   1.523   2.774
  316FEC      H 3754   0.854   1.555   2.730
  316FEC      H 3755   1.019   1.765   2.792
  317FEC      O 3756   1.375   2.636   2.899
  317FEC      C 3757   1.300   2.568   2.831
  317FEC      O 3758   1.186   2.615   2.772
  317FEC      C 3759   1.138   2.512   2.687
  317FEC      C 3760   1.200   2.390   2.747
  317FEC      F 3761   1.124   2.342   2.848
  317FEC      O 3762   1.321   2.436   2.803
  317FEC      H 3763   1.174   2.532   2.586
  317FEC      H 3764   1.029   2.509   2.690
  317FEC      H 3765   1.218   2.309   2.674
  318FEC      O 3766   0.843   2.982   0.673
  318FEC      C 3767   0.935   3.023   0.742
  318FEC      O 3768   1.023   3.121   0.703
  318FEC      C 3769   1.100   3.154   0.817
  318FEC      C 3770   1.088   3.031   0.902
  318FEC      F 3771   1.180   2.938   0.865
  318FEC      O 3772   0.961   2.979   0.869
  318FEC      H 3773   1.056   3.241   0.865
  318FEC      H 3774   1.203   3.174   0.788
  318FEC      H 3775   1.097   3.050   1.009
  319FEC      O 3776   2.916   2.660   2.536
  319FEC      C 3777   3.036   2.673   2.520
  319FEC      O 3778   3.096   2.787   2.473
  319FEC      C 3779   3.236   2.768   2.488
  319FEC      C 3780   3.249   2.619   2.492
  319FEC      F 3781   3.255   2.568   2.366
  319FEC      O 3782   3.127   2.575   2.549
  319FEC      H 3783   3.266   2.815   2.582
  319FEC      H 3784   3.289   2.812   2.404
  319FEC      H 3785   3.335   2.584   2.549
  320FEC      O 3786   2.458   1.439   3.920
  320FEC      C 3787   2.352   1.436   3.861
  320FEC      O 3788   2.254   1.343   3.883
  320FEC      C 3789   2.140   1.385   3.811
  320FEC      C 3790   2.199   1.474   3.706
  320FEC      F 3791   2.240   1.402   3.599
  320FEC      O 3792   2.314   1.528   3.767
  320FEC      H 3793   2.075   1.439   3.879
  320FEC      H 3794   2.088   1.299   3.768
  320FEC      H 3795   2.130   1.553   3.672
  321FEC      O 3796   2.881   1.262   2.121
  321FEC      C 3797   2.795   1.326   2.062
  321FEC      O 3798   2.660   1.305   2.077
  321FEC      C 3799   2.595   1.411   2.009
  321FEC      C 3800   2.699   1.457   1.912
  321FEC      F 3801   2.696   1.382   1.799
  321FEC      O 3802   2.821   1.429   1.977
  321FEC      H 3803   2.570   1.488   2.083
  321FEC      H 3804   2.505   1.374   1.959
  321FEC      H 3805   2.690   1.563   1.885
  322FEC      O 3806   3.542   2.894   2.067
  322FEC      C 3807   3.463   2.966   2.009
  322FEC      O 3808   3.404   3.076   2.065
  322FEC      C 3809   3.336   3.144   1.960
  322FEC      C 3810   3.316   3.035   1.859
  322FEC      F 3811   3.203   2.964   1.888
  322FEC      O 3812   3.425   2.949   1.879
  322FEC      H 3813   3.401   3.223   1.923
  322FEC      H 3814   3.242   3.185   1.997
  322FEC      H 3815   3.310   3.071   1.756
  323FEC      O 3816   1.598   2.926   0.870
  323FEC      C 3817   1.663   2.975   0.780
  323FEC      O 3818   1.615   3.002   0.655
  323FEC      C 3819   1.715   3.076   0.588
  323FEC      C 3820   1.839   3.039   0.662
  323FEC      F 3821   1.891   2.923   0.613
  323FEC      O 3822   1.794   3.012   0.793
  323FEC      H 3823   1.691   3.182   0.597
  323FEC      H 3824   1.719   3.047   0.483
  323FEC      H 3825   1.916   3.116   0.660
  324FEC      O 3826   3.617   1.215   0.440
  324FEC      C 3827   3.653   1.319   0.389
  324FEC      O 3828   3.579   1.391   0.299
  324FEC      C 3829   3.647   1.514   0.279
  324FEC      C 3830   3.787   1.481   0.319
  324FEC      F 3831   3.855   1.426   0.215
  324FEC      O 3832   3.773   1.381   0.417
  324FEC      H 3833   3.601   1.588   0.344
  324FEC      H 3834   3.639   1.544   0.174
  324FEC      H 3835   3.843   1.567   0.357
  325FEC      O 3836   1.542   0.735   0.704
  325FEC      C 3837   1.494   0.690   0.806
  325FEC      O 3838   1.403   0.754   0.885
  325FEC      C 3839   1.358   0.660   0.981
  325FEC      C 3840   1.470   0.562   0.986
  325FEC      F 3841   1.568   0.604   1.070
  325FEC      O 3842   1.524   0.565   0.855
  325FEC      H 3843   1.265   0.616   0.945
  325FEC      H 3844   1.342   0.710   1.077
  325FEC      H 3845   1.439   0.461   1.014
  326FEC      O 3846   1.901   1.426   2.822
  326FEC      C 3847   1.983   1.487   2.757
  326FEC      O 3848   1.977   1.504   2.622
  326FEC      C 3849   2.078   1.597   2.587
  326FEC      C 3850   2.173   1.586   2.702
  326FEC      F 3851   2.260   1.484   2.683
  326FEC      O 3852   2.091   1.551   2.812
  326FEC      H 3853   2.033   1.696   2.581
  326FEC      H 3854   2.125   1.570   2.492
  326FEC      H 3855   2.230   1.678   2.722
  327FEC      O 3856   1.385   1.259   1.788
  327FEC      C 3857   1.440   1.312   1.882
  327FEC      O 3858   1.376   1.355   1.995
  327FEC      C 3859   1.476   1.391   2.089
  327FEC      C 3860   1.594   1.417   2.001
  327FEC      F 3861   1.592   1.544   1.954
  327FEC      O 3862   1.575   1.332   1.890
  327FEC      H 3863   1.492   1.306   2.155
  327FEC      H 3864   1.445   1.479   2.145
  327FEC      H 3865   1.691   1.399   2.051
  328FEC      O 3866   2.403   2.653   3.390
  328FEC      C 3867   2.366   2.538   3.376
  328FEC      O 3868   2.236   2.500   3.363
  328FEC      C 3869   2.237   2.362   3.328
  328FEC      C 3870   2.370   2.317   3.378
  328FEC      F 3871   2.364   2.284   3.509
  328FEC      O 3872   2.452   2.431   3.367
  328FEC      H 3873   2.228   2.355   3.219
  328FEC      H 3874   2.154   2.311   3.377
  328FEC      H 3875   2.411   2.232   3.322
  329FEC      O 3876   1.608   3.437   2.886
  329FEC      C 3877   1.524   3.516   2.848
  329FEC      O 3878   1.421   3.485   2.763
  329FEC      C 3879   1.335   3.597   2.760
  329FEC      C 3880   1.425   3.708   2.803
  329FEC      F 3881   1.494   3.758   2.697
  329FEC      O 3882   1.519   3.647   2.888
  329FEC      H 3883   1.254   3.580   2.832
  329FEC      H 3884   1.296   3.612   2.660
  329FEC      H 3885   1.372   3.791   2.853
  330FEC      O 3886   1.758   2.968   2.842
  330FEC      C 3887   1.865   2.914   2.821
  330FEC      O 3888   1.930   2.834   2.911
  330FEC      C 3889   2.039   2.775   2.842
  330FEC      C 3890   2.061   2.869   2.728
  330FEC      F 3891   2.141   2.972   2.766
  330FEC      O 3892   1.933   2.923   2.703
  330FEC      H 3893   2.008   2.676   2.808
  330FEC      H 3894   2.126   2.768   2.907
  330FEC      H 3895   2.104   2.822   2.639
  331FEC      O 3896   2.376   2.973   1.620
  331FEC      C 3897   2.491   2.953   1.655
  331FEC      O 3898   2.592   2.913   1.571
  331FEC      C 3899   2.713   2.921   1.645
  331FEC      C 3900   2.665   2.913   1.786
  331FEC      F 3901   2.649   2.784   1.825
  331FEC      O 3902   2.536   2.971   1.783
  331FEC      H 3903   2.760   3.017   1.622
  331FEC      H 3904   2.778   2.839   1.618
  331FEC      H 3905   2.730   2.964   1.858
  332FEC      O 3906   2.534   1.155   3.254
  332FEC      C 3907   2.562   1.261   3.204
  332FEC      O 3908   2.543   1.383   3.263
  332FEC      C 3909   2.608   1.479   3.181
  332FEC      C 3910   2.613   1.411   3.049
  332FEC      F 3911   2.497   1.430   2.980
  332FEC      O 3912   2.621   1.274   3.080
  332FEC      H 3913   2.707   1.498   3.223
  332FEC      H 3914   2.549   1.571   3.179
  332FEC      H 3915   2.697   1.443   2.986
  333FEC      O 3916   0.603   3.016   2.323
  333FEC      C 3917   0.549   3.034   2.430
  333FEC      O 3918   0.516   3.157   2.481
  333FEC      C 3919   0.438   3.134   2.597
  333FEC      C 3920   0.478   2.996   2.636
  333FEC      F 3921   0.591   2.998   2.712
  333FEC      O 3922   0.512   2.933   2.515
  333FEC      H 3923   0.333   3.140   2.569
  333FEC      H 3924   0.462   3.208   2.674
  333FEC      H 3925   0.400   2.941   2.690
  334FEC      O 3926   3.515   1.575   2.859
  334FEC      C 3927   3.532   1.582   2.979
  334FEC      O 3928   3.547   1.699   3.049
  334FEC      C 3929   3.543   1.665   3.187
  334FEC      C 3930   3.582   1.520   3.186
  334FEC      F 3931   3.717   1.506   3.185
  334FEC      O 3932   3.534   1.473   3.062
  334FEC      H 3933   3.442   1.681   3.223
  334FEC      H 3934   3.614   1.726   3.242
  334FEC      H 3935   3.540   1.463   3.270
  335FEC      O 3936   2.288   0.538   2.069
  335FEC      C 3937   2.328   0.424   2.077
  335FEC      O 3938   2.254   0.319   2.127
  335FEC      C 3939   2.328   0.201   2.099
  335FEC      C 3940   2.467   0.252   2.083
  335FEC      F 3941   2.529   0.263   2.204
  335FEC      O 3942   2.451   0.383   2.033
  335FEC      H 3943   2.289   0.157   2.007
  335FEC      H 3944   2.318   0.131   2.183
  335FEC      H 3945   2.529   0.190   2.017
  336FEC      O 3946   2.857   3.541   2.310
  336FEC      C 3947   2.883   3.660   2.317
  336FEC      O 3948   2.838   3.754   2.228
  336FEC      C 3949   2.872   3.881   2.281
  336FEC      C 3950   2.985   3.848   2.374
  336FEC      F 3951   3.102   3.845   2.306
  336FEC      O 3952   2.958   3.716   2.416
  336FEC      H 3953   2.785   3.919   2.335
  336FEC      H 3954   2.901   3.949   2.201
  336FEC      H 3955   2.994   3.917   2.458
  337FEC      O 3956   1.802   1.887   1.236
  337FEC      C 3957   1.749   1.936   1.334
  337FEC      O 3958   1.739   1.875   1.455
  337FEC      C 3959   1.690   1.972   1.547
  337FEC      C 3960   1.624   2.071   1.457
  337FEC      F 3961   1.496   2.033   1.429
  337FEC      O 3962   1.696   2.063   1.336
  337FEC      H 3963   1.776   2.015   1.599
  337FEC      H 3964   1.620   1.926   1.617
  337FEC      H 3965   1.622   2.173   1.497
  338FEC      O 3966   0.203   1.087   0.542
  338FEC      C 3967   0.280   1.160   0.601
  338FEC      O 3968   0.354   1.122   0.710
  338FEC      C 3969   0.446   1.227   0.736
  338FEC      C 3970   0.381   1.345   0.670
  338FEC      F 3971   0.291   1.402   0.754
  338FEC      O 3972   0.308   1.289   0.563
  338FEC      H 3973   0.541   1.201   0.689
  338FEC      H 3974   0.458   1.241   0.843
  338FEC      H 3975   0.452   1.421   0.636
  339FEC      O 3976   2.530   1.715   3.345
  339FEC      C 3977   2.415   1.729   3.381
  339FEC      O 3978   2.378   1.779   3.503
  339FEC      C 3979   2.238   1.799   3.498
  339FEC      C 3980   2.195   1.706   3.389
  339FEC      F 3981   2.176   1.581   3.438
  339FEC      O 3982   2.306   1.700   3.302
  339FEC      H 3983   2.219   1.904   3.472
  339FEC      H 3984   2.193   1.774   3.594
  339FEC      H 3985   2.104   1.738   3.337
  340FEC      O 3986   1.061   1.828   3.397
  340FEC      C 3987   1.078   1.881   3.289
  340FEC      O 3988   1.053   1.821   3.169
  340FEC      C 3989   1.066   1.922   3.070
  340FEC      C 3990   1.153   2.024   3.137
  340FEC      F 3991   1.284   1.992   3.122
  340FEC      O 3992   1.122   2.010   3.274
  340FEC      H 3993   0.966   1.961   3.048
  340FEC      H 3994   1.112   1.881   2.980
  340FEC      H 3995   1.136   2.126   3.102
  341PF6      F 3996   1.770   1.745   3.533
  341PF6      P 3997   1.850   1.674   3.410
  341PF6      F 3998   1.901   1.820   3.360
  341PF6      F 3999   1.982   1.660   3.505
  341PF6      F 4000   1.930   1.603   3.287
  341PF6      F 4001   1.798   1.528   3.461
  341PF6      F 4002   1.718   1.688   3.316
  342PF6      F 4003   0.701   3.142   1.111
  342PF6      P 4004   0.788   3.048   1.212
  342PF6      F 4005   0.801   3.172   1.317
  342PF6      F 4006   0.651   2.999   1.285
  342PF6      F 4007   0.875   2.953   1.312
  342PF6      F 4008   0.775   2.924   1.106
  342PF6      F 4009   0.925   3.096   1.138
  343PF6      F 4010   3.643   1.001   2.059
  343PF6      P 4011   3.655   0.967   1.900
  343PF6      F 4012   3.694   0.813   1.935
  343PF6      F 4013   3.497   0.926   1.897
  343PF6      F 4014   3.666   0.933   1.741
  343PF6      F 4015   3.615   1.121   1.864
  343PF6      F 4016   3.812   1.008   1.902
  344PF6      F 4017   0.461   1.955   1.286
  344PF6      P 4018   0.478   1.839   1.173
  344PF6      F 4019   0.599   1.772   1.260
  344PF6      F 4020   0.370   1.746   1.252
  344PF6      F 4021   0.496   1.723   1.060
  344PF6      F 4022   0.358   1.906   1.086
  344PF6      F 4023   0.587   1.932   1.095
  345PF6      F 4024   1.384   3.326   2.615
  345PF6      P 4025   1.517   3.250   2.672
  345PF6      F 4026   1.468   3.279   2.825
  345PF6      F 4027   1.436   3.109   2.672
  345PF6      F 4028   1.649   3.174   2.728
  345PF6      F 4029   1.565   3.221   2.519
  345PF6      F 4030   1.598   3.391   2.671
  346PF6      F 4031   1.526   1.816   1.451
  346PF6      P 4032   1.395   1.790   1.357
  346PF6      F 4033   1.340   1.680   1.464
  346PF6      F 4034   1.315   1.908   1.437
  346PF6      F 4035   1.264   1.765   1.263
  346PF6      F 4036   1.450   1.900   1.250
  346PF6      F 4037   1.475   1.673   1.277
  347PF6      F 4038   3.374   2.160   2.860
  347PF6      P 4039   3.341   2.158   3.019
  347PF6      F 4040   3.202   2.079   2.990
  347PF6      F 4041   3.419   2.015   3.033
  347PF6      F 4042   3.308   2.156   3.179
  347PF6      F 4043   3.480   2.237   3.049
  347PF6      F 4044   3.263   2.300   3.005
  348PF6      F 4045   1.349   2.941   1.579
  348PF6      P 4046   1.453   2.976   1.700
  348PF6      F 4047   1.397   3.130   1.702
  348PF6      F 4048   1.340   2.933   1.809
  348PF6      F 4049   1.556   3.011   1.820
  348PF6      F 4050   1.508   2.823   1.697
  348PF6      F 4051   1.566   3.019   1.590
  349PF6      F 4052   0.534   1.837   0.363
  349PF6      P 4053   0.587   1.702   0.290
  349PF6      F 4054   0.466   1.714   0.181
  349PF6      F 4055   0.683   1.792   0.194
  349PF6      F 4056   0.640   1.566   0.216
  349PF6      F 4057   0.707   1.690   0.399
  349PF6      F 4058   0.491   1.611   0.386
  350PF6      F 4059   2.653   0.821   2.845
  350PF6      P 4060   2.623   0.939   2.954
  350PF6      F 4061   2.774   0.923   3.013
  350PF6      F 4062   2.676   1.051   2.848
  350PF6      F 4063   2.593   1.056   3.063
  350PF6      F 4064   2.472   0.955   2.896
  350PF6      F 4065   2.570   0.827   3.061
  351PF6      F 4066   1.421   3.885   2.485
  351PF6      P 4067   1.379   3.777   2.371
  351PF6      F 4068   1.478   3.666   2.439
  351PF6      F 4069   1.256   3.725   2.465
  351PF6      F 4070   1.337   3.668   2.257
  351PF6      F 4071   1.280   3.887   2.303
  351PF6      F 4072   1.502   3.828   2.277
  352PF6      F 4073   3.590   0.480   1.120
  352PF6      P 4074   3.734   0.543   1.077
  352PF6      F 4075   3.810   0.419   1.151
  352PF6      F 4076   3.730   0.456   0.939
  352PF6      F 4077   3.878   0.605   1.033
  352PF6      F 4078   3.658   0.666   1.002
  352PF6      F 4079   3.739   0.629   1.215
  353PF6      F 4080   2.727   0.311   2.886
  353PF6      P 4081   2.705   0.256   3.038
  353PF6      F 4082   2.610   0.136   2.980
  353PF6      F 4083   2.836   0.160   3.021
  353PF6      F 4084   2.684   0.200   3.189
  353PF6      F 4085   2.800   0.375   3.095
  353PF6      F 4086   2.574   0.351   3.055
  354PF6      F 4087   2.526   1.886   0.556
  354PF6      P 4088   2.650   1.789   0.593
  354PF6      F 4089   2.608   1.688   0.472
  354PF6      F 4090   2.746   1.872   0.491
  354PF6      F 4091   2.775   1.691   0.631
  354PF6      F 4092   2.693   1.889   0.715
  354PF6      F 4093   2.554   1.706   0.696
  355PF6      F 4094   0.657   0.882   1.814
  355PF6      P 4095   0.520   0.804   1.772
  355PF6      F 4096   0.460   0.943   1.711
  355PF6      F 4097   0.585   0.768   1.627
  355PF6      F 4098   0.383   0.726   1.730
  355PF6      F 4099   0.580   0.666   1.834
  355PF6      F 4100   0.454   0.840   1.917
  356PF6      F 4101   3.053   1.361   2.759
  356PF6      P 4102   2.975   1.222   2.792
  356PF6      F 4103   3.108   1.166   2.869
  356PF6      F 4104   2.920   1.285   2.932
  356PF6      F 4105   2.898   1.082   2.825
  356PF6      F 4106   2.843   1.277   2.714
  356PF6      F 4107   3.031   1.158   2.652
  357PF6      F 4108   1.263   3.618   3.970
  357PF6      P 4109   1.263   3.691   3.824
  357PF6      F 4110   1.396   3.775   3.866
  357PF6      F 4111   1.358   3.572   3.765
  357PF6      F 4112   1.263   3.763   3.678
  357PF6      F 4113   1.131   3.606   3.782
  357PF6      F 4114   1.169   3.810   3.883
  358PF6      F 4115   0.238   1.895   3.423
  358PF6      P 4116   0.253   1.920   3.583
  358PF6      F 4117   0.366   2.034   3.555
  358PF6      F 4118   0.136   2.034   3.576
  358PF6      F 4119   0.267   1.946   3.744
  358PF6      F 4120   0.139   1.807   3.612
  358PF6      F 4121   0.369   1.806   3.591
  359PF6      F 4122   3.533   0.164   3.091
  359PF6      P 4123   3.489   0.316   3.050
  359PF6      F 4124   3.335   0.283   3.091
  359PF6      F 4125   3.519   0.365   3.202
  359PF6      F 4126   3.446   0.468   3.009
  359PF6      F 4127   3.643   0.349   3.009
  359PF6      F 4128   3.459   0.266   2.897
  360PF6      F 4129   1.794   3.742   3.692
  360PF6      P 4130   1.907   3.855   3.728
  360PF6      F 4131   1.834   3.881   3.872
  360PF6      F 4132   2.000   3.740   3.796
  360PF6      F 4133   2.019   3.967   3.764
  360PF6      F 4134   1.979   3.829   3.584
  360PF6      F 4135   1.814   3.970   3.660
  361PF6      F 4136   1.028   1.578   2.037
  361PF6      P 4137   1.032   1.730   2.097
  361PF6      F 4138   1.168   1.693   2.180
  361PF6      F 4139   1.123   1.777   1.970
  361PF6      F 4140   1.036   1.881   2.157
  361PF6      F 4141   0.897   1.766   2.014
  361PF6      F 4142   0.942   1.682   2.224
  362PF6      F 4143   1.057   1.547   0.100
  362PF6      P 4144   1.022   1.553   0.259
  362PF6      F 4145   0.863   1.555   0.224
  362PF6      F 4146   1.019   1.390   0.264
  362PF6      F 4147   0.987   1.559   0.418
  362PF6      F 4148   1.181   1.551   0.294
  362PF6      F 4149   1.025   1.716   0.254
  363PF6      F 4150   0.962   3.345   2.906
  363PF6      P 4151   0.817   3.357   2.980
  363PF6      F 4152   0.749   3.273   2.858
  363PF6      F 4153   0.847   3.218   3.059
  363PF6      F 4154   0.672   3.368   3.053
  363PF6      F 4155   0.885   3.441   3.102
  363PF6      F 4156   0.788   3.496   2.900
  364PF6      F 4157   3.022   0.390   0.450
  364PF6      P 4158   3.095   0.456   0.320
  364PF6      F 4159   3.215   0.345   0.333
  364PF6      F 4160   3.012   0.355   0.223
  364PF6      F 4161   3.169   0.521   0.190
  364PF6      F 4162   2.976   0.566   0.308
  364PF6      F 4163   3.179   0.556   0.418
  365PF6      F 4164   3.970   1.435   2.000
  365PF6      P 4165   3.855   1.366   1.908
  365PF6      F 4166   3.858   1.234   2.004
  365PF6      F 4167   3.740   1.432   2.003
  365PF6      F 4168   3.740   1.296   1.817
  365PF6      F 4169   3.852   1.497   1.812
  365PF6      F 4170   3.970   1.300   1.814
  366PF6      F 4171   2.775   2.356   1.822
  366PF6      P 4172   2.689   2.408   1.951
  366PF6      F 4173   2.635   2.256   1.975
  366PF6      F 4174   2.817   2.378   2.047
  366PF6      F 4175   2.604   2.459   2.079
  366PF6      F 4176   2.743   2.559   1.926
  366PF6      F 4177   2.561   2.438   1.854
  367PF6      F 4178   2.793   2.046   1.916
  367PF6      P 4179   2.808   2.057   1.754
  367PF6      F 4180   2.699   1.937   1.736
  367PF6      F 4181   2.687   2.167   1.751
  367PF6      F 4182   2.822   2.068   1.592
  367PF6      F 4183   2.917   2.177   1.772
  367PF6      F 4184   2.928   1.947   1.757
  368PF6      F 4185   0.721   2.426   1.347
  368PF6      P 4186   0.800   2.442   1.205
  368PF6      F 4187   0.664   2.399   1.126
  368PF6      F 4188   0.755   2.598   1.197
  368PF6      F 4189   0.878   2.457   1.063
  368PF6      F 4190   0.935   2.485   1.285
  368PF6      F 4191   0.845   2.285   1.213
  369PF6      F 4192   3.067   1.523   0.906
  369PF6      P 4193   3.125   1.424   1.023
  369PF6      F 4194   2.994   1.329   1.007
  369PF6      F 4195   3.203   1.336   0.910
  369PF6      F 4196   3.183   1.326   1.139
  369PF6      F 4197   3.256   1.520   1.038
  369PF6      F 4198   3.047   1.513   1.136
  370PF6      F 4199   1.772   1.961   1.870
  370PF6      P 4200   1.910   2.028   1.927
  370PF6      F 4201   1.825   2.155   1.983
  370PF6      F 4202   1.888   1.951   2.069
  370PF6      F 4203   2.047   2.094   1.984
  370PF6      F 4204   1.995   1.900   1.871
  370PF6      F 4205   1.932   2.105   1.785
  371PF6      F 4206   1.509   2.199   0.156
  371PF6      P 4207   1.448   2.134   0.293
  371PF6      F 4208   1.318   2.232   0.281
  371PF6      F 4209   1.371   2.021   0.204
  371PF6      F 4210   1.387   2.069   0.429
  371PF6      F 4211   1.578   2.036   0.304
  371PF6      F 4212   1.526   2.247   0.381
  372PF6      F 4213   1.069   0.179   3.551
  372PF6      P 4214   1.206   0.264   3.578
  372PF6      F 4215   1.129   0.401   3.534
  372PF6      F 4216   1.161   0.288   3.732
  372PF6      F 4217   1.342   0.349   3.604
  372PF6      F 4218   1.282   0.127   3.621
  372PF6      F 4219   1.250   0.240   3.423
  373PF6      F 4220   0.100   2.683   2.891
  373PF6      P 4221   0.258   2.651   2.867
  373PF6      F 4222   0.237   2.669   2.706
  373PF6      F 4223   0.292   2.810   2.880
  373PF6      F 4224   0.416   2.619   2.843
  373PF6      F 4225   0.279   2.633   3.027
  373PF6      F 4226   0.224   2.492   2.853
  374PF6      F 4227   2.924   3.531   1.895
  374PF6      P 4228   2.994   3.437   1.782
  374PF6      F 4229   2.889   3.494   1.670
  374PF6      F 4230   3.097   3.558   1.746
  374PF6      F 4231   3.064   3.343   1.669
  374PF6      F 4232   3.098   3.381   1.893
  374PF6      F 4233   2.890   3.317   1.818
  375LI      Li 4234   3.757   1.715   2.550
  376LI      Li 4235   2.590   1.276   2.675
  377LI      Li 4236   0.900   3.965   1.651
  378LI      Li 4237   0.850   0.219   0.120
  379LI      Li 4238   3.618   1.312   3.664
  380LI      Li 4239   3.113   1.398   3.711
  381LI      Li 4240   3.168   1.510   0.301
  382LI      Li 4241   0.775   2.023   1.474
  383LI      Li 4242   0.459   2.698   0.399
  384LI      Li 4243   3.244   2.316   2.220
  385LI      Li 4244   0.248   1.194   0.889
  386LI      Li 4245   1.286   1.453   2.402
  387LI      Li 4246   3.842   1.209   1.226
  388LI      Li 4247   2.814   2.360   2.686
  389LI      Li 4248   3.849   2.116   1.942
  390LI      Li 4249   0.672   2.016   1.279
  391LI      Li 4250   0.921   3.739   0.190
  392LI      Li 4251   1.974   1.815   2.406
  393LI      Li 4252   3.675   2.794   0.355
  394LI      Li 4253   2.072   2.691   1.637
  395LI      Li 4254   2.347   2.424   3.047
  396LI      Li 4255   1.405   0.400   3.399
  397LI      Li 4256   1.485   1.456   2.496
  398LI      Li 4257   1.278   1.201   2.623
  399LI      Li 4258   3.311   2.115   1.465
  400LI      Li 4259   2.096   2.729   3.296
  401LI      Li 4260   3.080   0.147   2.922
  402LI      Li 4261   1.569   3.757   0.188
  403LI      Li 4262   1.984   0.473   2.384
  404LI      Li 4263   2.435   2.762   0.491
  405LI      Li 4264   3.722   1.303   0.898
  406LI      Li 4265   1.588   1.630   3.484
  407LI      Li 4266   0.491   2.037   0.444
  408LI      Li 4267   2.833   3.434   3.935
   4.07000   4.07000   4.07000
