; ITP file created by ByteFF-ML, 2026-09-15 21:43:30.813512

[ moleculetype ]
;name             nrexcl
 FSI                   3

[ atoms ]
;       nr            type      resi   res      atom      cgnr      charge          mass ; qtot
         1            o0bf         1   UNL        o0         1    -0.49638       15.9990 ; qtot   -0.496
         2            s1bf         1   UNL        s1         2     1.12832       32.0670 ; qtot    0.632
         3            o2bf         1   UNL        o2         3    -0.49638       15.9990 ; qtot    0.136
         4            f3bf         1   UNL        f3         4    -0.29341       18.9980 ; qtot   -0.158
         5            n4bf         1   UNL        n4         5    -0.68428       14.0070 ; qtot   -0.842
         6            s5bf         1   UNL        s5         6     1.12832       32.0670 ; qtot    0.286
         7            o6bf         1   UNL        o6         7    -0.49638       15.9990 ; qtot   -0.210
         8            o7bf         1   UNL        o7         8    -0.49638       15.9990 ; qtot   -0.707
         9            f8bf         1   UNL        f8         9    -0.29343       18.9980 ; qtot   -1.000

[ bonds ]
;       ai        aj funct               r               k
         1         2     1        0.144449   493917.726953
         2         3     1        0.144449   493917.726953
         2         4     1        0.178639   116187.642139
         2         5     1        0.159167   206776.975220
         5         6     1        0.159167   206776.962451
         6         7     1        0.144450   493917.778027
         6         8     1        0.144450   493917.778027
         6         9     1        0.178639   116187.642139

[ angles ]
;       ai        aj        ak funct           theta             cth
         1         2         3     1      120.719002      698.115109
         1         2         4     1      103.982430      541.600592
         1         2         5     1      112.426872      527.089481
         2         5         6     1      122.515015      604.385299
         3         2         4     1      103.982430      541.600592
         3         2         5     1      112.426872      527.089481
         4         2         5     1       99.351227      453.401034
         5         6         7     1      112.426872      527.089449
         5         6         8     1      112.426872      527.089449
         5         6         9     1       99.351219      453.400971
         7         6         8     1      120.719002      698.114982
         7         6         9     1      103.982437      541.600273
         8         6         9     1      103.982422      541.600464

[ dihedrals ] ; propers for gromacs 4.5 or higher, use funct 9
;       ai        aj        ak        al funct           phase               k        pn
         1         2         5         6     9        0.000000       10.562516         1
         1         2         5         6     9      180.000000        1.976976         2
         1         2         5         6     9        0.000000        0.794311         3
         1         2         5         6     9      180.000000       -0.027951         4
         2         5         6         7     9        0.000000       10.562499         1
         2         5         6         7     9      180.000000        1.976978         2
         2         5         6         7     9        0.000000        0.794312         3
         2         5         6         7     9      180.000000       -0.027950         4
         2         5         6         8     9        0.000000       10.562499         1
         2         5         6         8     9      180.000000        1.976978         2
         2         5         6         8     9        0.000000        0.794312         3
         2         5         6         8     9      180.000000       -0.027950         4
         2         5         6         9     9        0.000000        2.779219         1
         2         5         6         9     9      180.000000       -0.758145         2
         2         5         6         9     9        0.000000        0.258347         3
         2         5         6         9     9      180.000000        0.041774         4
         3         2         5         6     9        0.000000       10.562516         1
         3         2         5         6     9      180.000000        1.976976         2
         3         2         5         6     9        0.000000        0.794311         3
         3         2         5         6     9      180.000000       -0.027951         4
         4         2         5         6     9        0.000000        2.779216         1
         4         2         5         6     9      180.000000       -0.758147         2
         4         2         5         6     9        0.000000        0.258348         3
         4         2         5         6     9      180.000000        0.041774         4

[ pairs ]
;       ai        aj funct
         1         6     1
         2         7     1
         2         8     1
         2         9     1
         3         6     1
         4         6     1
