A Gromacs structure file written by ASE
 4862
    1EMC      C    1   1.055   1.583   2.106
    1EMC      C    2   1.084   1.457   2.185
    1EMC      O    3   1.173   1.485   2.293
    1EMC      C    4   1.305   1.480   2.262
    1EMC      O    5   1.353   1.455   2.153
    1EMC      O    6   1.375   1.509   2.375
    1EMC      C    7   1.517   1.508   2.357
    1EMC      H    8   1.015   1.661   2.172
    1EMC      H    9   0.982   1.563   2.027
    1EMC      H   10   1.145   1.623   2.061
    1EMC      H   11   0.991   1.418   2.229
    1EMC      H   12   1.123   1.377   2.120
    1EMC      H   13   1.551   1.408   2.326
    1EMC      H   14   1.564   1.532   2.452
    1EMC      H   15   1.547   1.583   2.284
    2EMC      C   16   3.192   2.107   3.131
    2EMC      C   17   3.051   2.145   3.093
    2EMC      O   18   2.998   2.243   3.183
    2EMC      C   19   2.939   2.192   3.295
    2EMC      O   20   2.927   2.074   3.323
    2EMC      O   21   2.895   2.296   3.369
    2EMC      C   22   2.831   2.258   3.491
    2EMC      H   23   3.256   2.196   3.137
    2EMC      H   24   3.234   2.037   3.058
    2EMC      H   25   3.194   2.060   3.230
    2EMC      H   26   3.051   2.192   2.992
    2EMC      H   27   2.986   2.057   3.085
    2EMC      H   28   2.741   2.197   3.469
    2EMC      H   29   2.799   2.348   3.543
    2EMC      H   30   2.899   2.203   3.555
    3EMC      C   31   1.903   2.307   2.590
    3EMC      C   32   1.849   2.194   2.674
    3EMC      O   33   1.717   2.159   2.632
    3EMC      C   34   1.617   2.231   2.689
    3EMC      O   35   1.630   2.320   2.771
    3EMC      O   36   1.500   2.186   2.639
    3EMC      C   37   1.385   2.253   2.691
    3EMC      H   38   1.901   2.281   2.484
    3EMC      H   39   2.007   2.330   2.618
    3EMC      H   40   1.844   2.397   2.602
    3EMC      H   41   1.912   2.104   2.661
    3EMC      H   42   1.853   2.218   2.782
    3EMC      H   43   1.377   2.240   2.800
    3EMC      H   44   1.296   2.210   2.645
    3EMC      H   45   1.388   2.360   2.665
    4EMC      C   46   2.658   2.985   0.197
    4EMC      C   47   2.649   3.094   0.302
    4EMC      O   48   2.627   3.038   0.431
    4EMC      C   49   2.497   3.015   0.463
    4EMC      O   50   2.400   3.039   0.393
    4EMC      O   51   2.493   2.962   0.588
    4EMC      C   52   2.362   2.934   0.635
    4EMC      H   53   2.736   2.912   0.223
    4EMC      H   54   2.681   3.027   0.099
    4EMC      H   55   2.564   2.930   0.190
    4EMC      H   56   2.745   3.148   0.306
    4EMC      H   57   2.573   3.168   0.276
    4EMC      H   58   2.302   3.026   0.641
    4EMC      H   59   2.370   2.892   0.736
    4EMC      H   60   2.313   2.860   0.571
    5EMC      C   61   1.819   1.016   0.214
    5EMC      C   62   1.949   1.017   0.291
    5EMC      O   63   1.985   1.150   0.327
    5EMC      C   64   2.057   1.218   0.233
    5EMC      O   65   2.092   1.175   0.125
    5EMC      O   66   2.083   1.342   0.282
    5EMC      C   67   2.159   1.424   0.193
    5EMC      H   68   1.739   1.066   0.271
    5EMC      H   69   1.788   0.913   0.192
    5EMC      H   70   1.829   1.070   0.120
    5EMC      H   71   1.936   0.961   0.386
    5EMC      H   72   2.029   0.966   0.236
    5EMC      H   73   2.257   1.379   0.172
    5EMC      H   74   2.175   1.521   0.241
    5EMC      H   75   2.104   1.441   0.100
    6EMC      C   76   1.548   1.298   0.767
    6EMC      C   77   1.476   1.170   0.730
    6EMC      O   78   1.391   1.127   0.837
    6EMC      C   79   1.451   1.051   0.932
    6EMC      O   80   1.567   1.016   0.933
    6EMC      O   81   1.357   1.019   1.025
    6EMC      C   82   1.406   0.938   1.131
    6EMC      H   83   1.476   1.376   0.795
    6EMC      H   84   1.608   1.334   0.683
    6EMC      H   85   1.613   1.283   0.853
    6EMC      H   86   1.411   1.188   0.643
    6EMC      H   87   1.547   1.091   0.701
    6EMC      H   88   1.443   0.841   1.093
    6EMC      H   89   1.324   0.918   1.200
    6EMC      H   90   1.485   0.990   1.186
    7EMC      C   91   2.951   1.472   0.627
    7EMC      C   92   2.927   1.618   0.597
    7EMC      O   93   3.044   1.695   0.625
    7EMC      C   94   3.058   1.737   0.753
    7EMC      O   95   2.980   1.715   0.844
    7EMC      O   96   3.173   1.807   0.762
    7EMC      C   97   3.200   1.858   0.893
    7EMC      H   98   3.038   1.435   0.570
    7EMC      H   99   2.864   1.411   0.600
    7EMC      H  100   2.974   1.455   0.732
    7EMC      H  101   2.904   1.631   0.490
    7EMC      H  102   2.840   1.656   0.652
    7EMC      H  103   3.120   1.927   0.925
    7EMC      H  104   3.294   1.913   0.889
    7EMC      H  105   3.211   1.776   0.964
    8EMC      C  106   0.412   2.048   3.643
    8EMC      C  107   0.295   1.952   3.646
    8EMC      O  108   0.304   1.859   3.537
    8EMC      C  109   0.249   1.902   3.421
    8EMC      O  110   0.194   2.009   3.401
    8EMC      O  111   0.265   1.804   3.329
    8EMC      C  112   0.211   1.835   3.200
    8EMC      H  113   0.507   1.992   3.645
    8EMC      H  114   0.409   2.115   3.730
    8EMC      H  115   0.412   2.108   3.553
    8EMC      H  116   0.298   1.892   3.739
    8EMC      H  117   0.199   2.006   3.646
    8EMC      H  118   0.103   1.852   3.206
    8EMC      H  119   0.229   1.750   3.134
    8EMC      H  120   0.261   1.922   3.158
    9EMC      C  121   2.411   2.734   3.305
    9EMC      C  122   2.356   2.593   3.308
    9EMC      O  123   2.446   2.503   3.242
    9EMC      C  124   2.430   2.493   3.108
    9EMC      O  125   2.348   2.552   3.040
    9EMC      O  126   2.522   2.405   3.061
    9EMC      C  127   2.517   2.384   2.920
    9EMC      H  128   2.511   2.737   3.350
    9EMC      H  129   2.345   2.802   3.361
    9EMC      H  130   2.420   2.771   3.203
    9EMC      H  131   2.347   2.559   3.412
    9EMC      H  132   2.255   2.588   3.264
    9EMC      H  133   2.419   2.342   2.891
    9EMC      H  134   2.594   2.312   2.894
    9EMC      H  135   2.536   2.477   2.867
   10EMC      C  136   1.806   1.013   3.396
   10EMC      C  137   1.743   1.132   3.464
   10EMC      O  138   1.715   1.103   3.601
   10EMC      C  139   1.595   1.044   3.624
   10EMC      O  140   1.512   1.015   3.541
   10EMC      O  141   1.585   1.023   3.758
   10EMC      C  142   1.462   0.961   3.797
   10EMC      H  143   1.896   0.981   3.449
   10EMC      H  144   1.833   1.037   3.292
   10EMC      H  145   1.738   0.928   3.394
   10EMC      H  146   1.814   1.217   3.463
   10EMC      H  147   1.653   1.167   3.411
   10EMC      H  148   1.376   1.024   3.771
   10EMC      H  149   1.464   0.949   3.906
   10EMC      H  150   1.453   0.862   3.752
   11EMC      C  151   1.183   3.772   1.335
   11EMC      C  152   1.142   3.643   1.267
   11EMC      O  153   1.203   3.531   1.332
   11EMC      C  154   1.327   3.499   1.289
   11EMC      O  155   1.390   3.556   1.202
   11EMC      O  156   1.370   3.392   1.360
   11EMC      C  157   1.501   3.347   1.324
   11EMC      H  158   1.157   3.769   1.442
   11EMC      H  159   1.131   3.858   1.289
   11EMC      H  160   1.290   3.788   1.329
   11EMC      H  161   1.033   3.630   1.275
   11EMC      H  162   1.166   3.645   1.160
   11EMC      H  163   1.504   3.315   1.219
   11EMC      H  164   1.525   3.260   1.387
   11EMC      H  165   1.575   3.425   1.343
   12EMC      C  166   0.953   0.806   2.240
   12EMC      C  167   0.889   0.924   2.170
   12EMC      O  168   0.962   1.044   2.198
   12EMC      C  169   0.926   1.109   2.312
   12EMC      O  170   0.840   1.074   2.391
   12EMC      O  171   1.004   1.219   2.324
   12EMC      C  172   0.977   1.297   2.440
   12EMC      H  173   1.058   0.797   2.210
   12EMC      H  174   0.901   0.713   2.213
   12EMC      H  175   0.951   0.818   2.348
   12EMC      H  176   0.892   0.910   2.061
   12EMC      H  177   0.783   0.934   2.197
   12EMC      H  178   0.873   1.334   2.439
   12EMC      H  179   1.044   1.383   2.440
   12EMC      H  180   0.996   1.239   2.531
   13EMC      C  181   3.598   1.043   1.481
   13EMC      C  182   3.724   0.962   1.504
   13EMC      O  183   3.822   0.995   1.406
   13EMC      C  184   3.814   0.925   1.289
   13EMC      O  185   3.732   0.839   1.263
   13EMC      O  186   3.914   0.968   1.208
   13EMC      C  187   3.918   0.902   1.081
   13EMC      H  188   3.620   1.151   1.482
   13EMC      H  189   3.524   1.022   1.560
   13EMC      H  190   3.553   1.020   1.385
   13EMC      H  191   3.767   0.987   1.602
   13EMC      H  192   3.702   0.854   1.506
   13EMC      H  193   3.934   0.794   1.094
   13EMC      H  194   4.001   0.944   1.024
   13EMC      H  195   3.825   0.921   1.026
   14EMC      C  196   2.598   1.171   3.781
   14EMC      C  197   2.606   1.307   3.846
   14EMC      O  198   2.644   1.406   3.751
   14EMC      C  199   2.778   1.421   3.732
   14EMC      O  200   2.866   1.360   3.789
   14EMC      O  201   2.797   1.518   3.639
   14EMC      C  202   2.934   1.545   3.610
   14EMC      H  203   2.528   1.173   3.696
   14EMC      H  204   2.563   1.096   3.853
   14EMC      H  205   2.694   1.139   3.743
   14EMC      H  206   2.507   1.336   3.885
   14EMC      H  207   2.674   1.306   3.933
   14EMC      H  208   2.987   1.580   3.700
   14EMC      H  209   2.938   1.624   3.535
   14EMC      H  210   2.983   1.456   3.569
   15EMC      C  211   0.183   2.983   1.746
   15EMC      C  212   0.290   2.904   1.674
   15EMC      O  213   0.236   2.785   1.617
   15EMC      C  214   0.231   2.678   1.701
   15EMC      O  215   0.268   2.674   1.816
   15EMC      O  216   0.176   2.574   1.632
   15EMC      C  217   0.165   2.454   1.708
   15EMC      H  218   0.100   3.006   1.677
   15EMC      H  219   0.224   3.078   1.784
   15EMC      H  220   0.141   2.927   1.829
   15EMC      H  221   0.331   2.963   1.591
   15EMC      H  222   0.375   2.882   1.741
   15EMC      H  223   0.265   2.419   1.740
   15EMC      H  224   0.121   2.377   1.644
   15EMC      H  225   0.100   2.468   1.794
   16EMC      C  226   2.697   1.636   2.052
   16EMC      C  227   2.794   1.732   1.987
   16EMC      O  228   2.915   1.665   1.951
   16EMC      C  229   3.008   1.657   2.049
   16EMC      O  230   2.999   1.702   2.161
   16EMC      O  231   3.116   1.591   1.999
   16EMC      C  232   3.223   1.576   2.092
   16EMC      H  233   2.677   1.550   1.985
   16EMC      H  234   2.602   1.686   2.074
   16EMC      H  235   2.737   1.595   2.144
   16EMC      H  236   2.750   1.772   1.894
   16EMC      H  237   2.813   1.819   2.051
   16EMC      H  238   3.261   1.674   2.123
   16EMC      H  239   3.304   1.522   2.042
   16EMC      H  240   3.191   1.518   2.178
   17EMC      C  241   0.901   0.977   3.499
   17EMC      C  242   1.006   0.995   3.391
   17EMC      O  243   0.961   0.941   3.267
   17EMC      C  244   0.986   0.808   3.250
   17EMC      O  245   1.041   0.734   3.328
   17EMC      O  246   0.937   0.773   3.128
   17EMC      C  247   0.956   0.635   3.096
   17EMC      H  248   0.806   1.021   3.467
   17EMC      H  249   0.933   1.024   3.593
   17EMC      H  250   0.882   0.871   3.518
   17EMC      H  251   1.024   1.103   3.375
   17EMC      H  252   1.103   0.952   3.422
   17EMC      H  253   1.064   0.610   3.093
   17EMC      H  254   0.914   0.617   2.997
   17EMC      H  255   0.904   0.571   3.167
   18EMC      C  256   2.088   3.458   0.256
   18EMC      C  257   2.212   3.423   0.178
   18EMC      O  258   2.197   3.298   0.110
   18EMC      C  259   2.229   3.189   0.183
   18EMC      O  260   2.269   3.188   0.298
   18EMC      O  261   2.209   3.079   0.106
   18EMC      C  262   2.239   2.956   0.170
   18EMC      H  263   2.000   3.458   0.190
   18EMC      H  264   2.097   3.556   0.303
   18EMC      H  265   2.069   3.384   0.334
   18EMC      H  266   2.229   3.500   0.100
   18EMC      H  267   2.302   3.424   0.242
   18EMC      H  268   2.345   2.952   0.199
   18EMC      H  269   2.220   2.875   0.100
   18EMC      H  270   2.175   2.941   0.258
   19EMC      C  271   2.532   2.581   1.562
   19EMC      C  272   2.649   2.673   1.586
   19EMC      O  273   2.773   2.604   1.572
   19EMC      C  274   2.817   2.540   1.683
   19EMC      O  275   2.762   2.538   1.792
   19EMC      O  276   2.934   2.479   1.652
   19EMC      C  277   2.993   2.408   1.761
   19EMC      H  278   2.540   2.534   1.463
   19EMC      H  279   2.437   2.636   1.567
   19EMC      H  280   2.529   2.500   1.635
   19EMC      H  281   2.649   2.754   1.511
   19EMC      H  282   2.641   2.723   1.684
   19EMC      H  283   3.016   2.476   1.844
   19EMC      H  284   3.086   2.363   1.726
   19EMC      H  285   2.927   2.328   1.795
   20EMC      C  286   3.141   3.365   2.804
   20EMC      C  287   3.169   3.470   2.699
   20EMC      O  288   3.171   3.411   2.569
   20EMC      C  289   3.291   3.359   2.530
   20EMC      O  290   3.393   3.358   2.595
   20EMC      O  291   3.275   3.308   2.406
   20EMC      C  292   3.394   3.249   2.352
   20EMC      H  293   3.046   3.313   2.782
   20EMC      H  294   3.133   3.411   2.904
   20EMC      H  295   3.219   3.289   2.807
   20EMC      H  296   3.089   3.545   2.699
   20EMC      H  297   3.263   3.524   2.721
   20EMC      H  298   3.474   3.325   2.343
   20EMC      H  299   3.371   3.212   2.252
   20EMC      H  300   3.427   3.166   2.414
   21EMC      C  301   0.325   1.989   1.119
   21EMC      C  302   0.247   1.960   0.993
   21EMC      O  303   0.294   2.041   0.885
   21EMC      C  304   0.238   2.164   0.876
   21EMC      O  305   0.153   2.210   0.949
   21EMC      O  306   0.293   2.227   0.769
   21EMC      C  307   0.243   2.359   0.747
   21EMC      H  308   0.433   1.974   1.102
   21EMC      H  309   0.293   1.923   1.201
   21EMC      H  310   0.312   2.092   1.151
   21EMC      H  311   0.262   1.855   0.964
   21EMC      H  312   0.139   1.972   1.009
   21EMC      H  313   0.135   2.356   0.727
   21EMC      H  314   0.293   2.400   0.660
   21EMC      H  315   0.264   2.423   0.833
   22EMC      C  316   0.720   3.499   2.044
   22EMC      C  317   0.864   3.462   2.070
   22EMC      O  318   0.942   3.578   2.100
   22EMC      C  319   0.992   3.643   1.992
   22EMC      O  320   0.978   3.612   1.875
   22EMC      O  321   1.063   3.750   2.038
   22EMC      C  322   1.122   3.829   1.934
   22EMC      H  323   0.678   3.554   2.129
   22EMC      H  324   0.659   3.410   2.026
   22EMC      H  325   0.711   3.564   1.957
   22EMC      H  326   0.870   3.396   2.158
   22EMC      H  327   0.907   3.405   1.986
   22EMC      H  328   1.194   3.769   1.876
   22EMC      H  329   1.176   3.911   1.981
   22EMC      H  330   1.045   3.870   1.869
   23EMC      C  331   0.745   0.922   2.610
   23EMC      C  332   0.887   0.954   2.653
   23EMC      O  333   0.975   0.847   2.617
   23EMC      C  334   0.984   0.747   2.708
   23EMC      O  335   0.926   0.740   2.814
   23EMC      O  336   1.071   0.654   2.659
   23EMC      C  337   1.091   0.542   2.745
   23EMC      H  338   0.741   0.901   2.502
   23EMC      H  339   0.678   1.006   2.632
   23EMC      H  340   0.707   0.834   2.661
   23EMC      H  341   0.922   1.044   2.600
   23EMC      H  342   0.892   0.977   2.760
   23EMC      H  343   1.133   0.574   2.842
   23EMC      H  344   1.162   0.475   2.697
   23EMC      H  345   0.997   0.488   2.760
   24EMC      C  346   3.516   0.826   2.516
   24EMC      C  347   3.393   0.841   2.429
   24EMC      O  348   3.358   0.978   2.415
   24EMC      C  349   3.278   1.028   2.513
   24EMC      O  350   3.235   0.967   2.609
   24EMC      O  351   3.254   1.158   2.486
   24EMC      C  352   3.170   1.224   2.581
   24EMC      H  353   3.599   0.885   2.475
   24EMC      H  354   3.547   0.721   2.522
   24EMC      H  355   3.498   0.862   2.617
   24EMC      H  356   3.415   0.803   2.328
   24EMC      H  357   3.310   0.781   2.468
   24EMC      H  358   3.071   1.176   2.585
   24EMC      H  359   3.157   1.327   2.549
   24EMC      H  360   3.217   1.224   2.680
   25EMC      C  361   2.162   1.603   2.718
   25EMC      C  362   2.182   1.524   2.591
   25EMC      O  363   2.311   1.549   2.536
   25EMC      C  364   2.319   1.658   2.454
   25EMC      O  365   2.228   1.733   2.424
   25EMC      O  366   2.448   1.668   2.411
   25EMC      C  367   2.471   1.778   2.323
   25EMC      H  368   2.242   1.580   2.790
   25EMC      H  369   2.065   1.579   2.764
   25EMC      H  370   2.166   1.710   2.699
   25EMC      H  371   2.177   1.416   2.613
   25EMC      H  372   2.102   1.544   2.518
   25EMC      H  373   2.410   1.769   2.232
   25EMC      H  374   2.576   1.777   2.294
   25EMC      H  375   2.450   1.873   2.374
   26EMC      C  376   1.118   1.825   1.569
   26EMC      C  377   1.238   1.881   1.643
   26EMC      O  378   1.231   2.023   1.650
   26EMC      C  379   1.283   2.089   1.543
   26EMC      O  380   1.334   2.038   1.445
   26EMC      O  381   1.269   2.222   1.566
   26EMC      C  382   1.321   2.304   1.461
   26EMC      H  383   1.024   1.859   1.616
   26EMC      H  384   1.120   1.715   1.569
   26EMC      H  385   1.116   1.860   1.466
   26EMC      H  386   1.238   1.843   1.747
   26EMC      H  387   1.332   1.846   1.598
   26EMC      H  388   1.429   2.288   1.448
   26EMC      H  389   1.304   2.408   1.488
   26EMC      H  390   1.268   2.284   1.367
   27EMC      C  391   1.117   0.348   2.247
   27EMC      C  392   1.149   0.491   2.214
   27EMC      O  393   1.271   0.532   2.277
   27EMC      C  394   1.257   0.579   2.404
   27EMC      O  395   1.154   0.589   2.466
   27EMC      O  396   1.381   0.612   2.449
   27EMC      C  397   1.382   0.664   2.582
   27EMC      H  398   1.201   0.282   2.220
   27EMC      H  399   1.027   0.314   2.194
   27EMC      H  400   1.101   0.335   2.354
   27EMC      H  401   1.165   0.501   2.105
   27EMC      H  402   1.066   0.558   2.239
   27EMC      H  403   1.322   0.756   2.589
   27EMC      H  404   1.485   0.688   2.608
   27EMC      H  405   1.345   0.589   2.652
   28EMC      C  406   1.485   2.900   1.240
   28EMC      C  407   1.501   3.045   1.200
   28EMC      O  408   1.400   3.126   1.263
   28EMC      C  409   1.282   3.133   1.196
   28EMC      O  410   1.256   3.080   1.090
   28EMC      O  411   1.199   3.212   1.268
   28EMC      C  412   1.070   3.230   1.209
   28EMC      H  413   1.488   2.890   1.349
   28EMC      H  414   1.566   2.840   1.197
   28EMC      H  415   1.390   2.860   1.206
   28EMC      H  416   1.598   3.083   1.235
   28EMC      H  417   1.500   3.057   1.091
   28EMC      H  418   1.078   3.279   1.111
   28EMC      H  419   1.011   3.294   1.275
   28EMC      H  420   1.018   3.134   1.200
   29EMC      C  421   2.563   3.132   1.491
   29EMC      C  422   2.484   3.244   1.426
   29EMC      O  423   2.533   3.270   1.294
   29EMC      C  424   2.637   3.357   1.288
   29EMC      O  425   2.690   3.414   1.381
   29EMC      O  426   2.671   3.371   1.157
   29EMC      C  427   2.780   3.461   1.135
   29EMC      H  428   2.560   3.042   1.429
   29EMC      H  429   2.521   3.108   1.590
   29EMC      H  430   2.667   3.160   1.503
   29EMC      H  431   2.378   3.213   1.416
   29EMC      H  432   2.484   3.334   1.488
   29EMC      H  433   2.754   3.562   1.169
   29EMC      H  434   2.799   3.464   1.027
   29EMC      H  435   2.870   3.425   1.185
   30EMC      C  436   3.107   1.620   2.446
   30EMC      C  437   2.992   1.674   2.529
   30EMC      O  438   2.905   1.568   2.568
   30EMC      C  439   2.808   1.536   2.479
   30EMC      O  440   2.789   1.589   2.371
   30EMC      O  441   2.735   1.434   2.531
   30EMC      C  442   2.628   1.390   2.447
   30EMC      H  443   3.161   1.542   2.501
   30EMC      H  444   3.177   1.701   2.421
   30EMC      H  445   3.071   1.575   2.354
   30EMC      H  446   3.031   1.719   2.621
   30EMC      H  447   2.938   1.753   2.476
   30EMC      H  448   2.556   1.472   2.429
   30EMC      H  449   2.576   1.309   2.498
   30EMC      H  450   2.667   1.352   2.352
   31EMC      C  451   2.848   2.222   2.230
   31EMC      C  452   2.881   2.343   2.314
   31EMC      O  453   2.822   2.460   2.259
   31EMC      C  454   2.896   2.523   2.163
   31EMC      O  455   3.005   2.489   2.122
   31EMC      O  456   2.826   2.631   2.121
   31EMC      C  457   2.892   2.708   2.020
   31EMC      H  458   2.740   2.211   2.219
   31EMC      H  459   2.889   2.130   2.276
   31EMC      H  460   2.889   2.231   2.129
   31EMC      H  461   2.839   2.330   2.415
   31EMC      H  462   2.990   2.354   2.327
   31EMC      H  463   2.988   2.747   2.058
   31EMC      H  464   2.828   2.792   1.994
   31EMC      H  465   2.908   2.647   1.931
   32EMC      C  466   0.958   3.230   2.972
   32EMC      C  467   0.882   3.136   3.062
   32EMC      O  468   0.781   3.206   3.135
   32EMC      C  469   0.822   3.263   3.251
   32EMC      O  470   0.934   3.260   3.297
   32EMC      O  471   0.715   3.326   3.307
   32EMC      C  472   0.744   3.391   3.430
   32EMC      H  473   0.888   3.282   2.904
   32EMC      H  474   1.031   3.175   2.911
   32EMC      H  475   1.010   3.306   3.029
   32EMC      H  476   0.831   3.059   3.002
   32EMC      H  477   0.950   3.081   3.130
   32EMC      H  478   0.778   3.318   3.506
   32EMC      H  479   0.652   3.437   3.467
   32EMC      H  480   0.818   3.469   3.416
   33EMC      C  481   3.462   2.197   1.430
   33EMC      C  482   3.593   2.126   1.453
   33EMC      O  483   3.694   2.218   1.496
   33EMC      C  484   3.761   2.281   1.397
   33EMC      O  485   3.744   2.266   1.277
   33EMC      O  486   3.852   2.364   1.454
   33EMC      C  487   3.931   2.437   1.360
   33EMC      H  488   3.431   2.251   1.521
   33EMC      H  489   3.383   2.126   1.403
   33EMC      H  490   3.471   2.271   1.351
   33EMC      H  491   3.581   2.051   1.533
   33EMC      H  492   3.625   2.070   1.363
   33EMC      H  493   3.989   2.369   1.297
   33EMC      H  494   4.000   2.500   1.416
   33EMC      H  495   3.867   2.502   1.299
   34EMC      C  496   0.626   0.667   1.432
   34EMC      C  497   0.548   0.694   1.306
   34EMC      O  498   0.606   0.625   1.195
   34EMC      C  499   0.706   0.691   1.131
   34EMC      O  500   0.749   0.801   1.160
   34EMC      O  501   0.750   0.613   1.030
   34EMC      C  502   0.856   0.671   0.954
   34EMC      H  503   0.633   0.558   1.451
   34EMC      H  504   0.578   0.714   1.519
   34EMC      H  505   0.728   0.704   1.425
   34EMC      H  506   0.445   0.656   1.317
   34EMC      H  507   0.539   0.802   1.287
   34EMC      H  508   0.823   0.764   0.906
   34EMC      H  509   0.883   0.600   0.875
   34EMC      H  510   0.943   0.688   1.016
   35EMC      C  511   0.521   3.399   3.090
   35EMC      C  512   0.428   3.286   3.130
   35EMC      O  513   0.484   3.212   3.239
   35EMC      C  514   0.568   3.112   3.203
   35EMC      O  515   0.599   3.080   3.090
   35EMC      O  516   0.612   3.051   3.316
   35EMC      C  517   0.702   2.943   3.294
   35EMC      H  518   0.543   3.463   3.176
   35EMC      H  519   0.476   3.460   3.011
   35EMC      H  520   0.616   3.361   3.054
   35EMC      H  521   0.332   3.328   3.166
   35EMC      H  522   0.404   3.222   3.045
   35EMC      H  523   0.653   2.863   3.235
   35EMC      H  524   0.730   2.902   3.390
   35EMC      H  525   0.792   2.978   3.243
   36EMC      C  526   3.094   0.646   1.896
   36EMC      C  527   3.190   0.543   1.952
   36EMC      O  528   3.141   0.491   2.076
   36EMC      C  529   3.174   0.563   2.186
   36EMC      O  530   3.241   0.665   2.189
   36EMC      O  531   3.121   0.501   2.294
   36EMC      C  532   3.148   0.566   2.418
   36EMC      H  533   2.994   0.603   1.884
   36EMC      H  534   3.129   0.682   1.798
   36EMC      H  535   3.085   0.732   1.962
   36EMC      H  536   3.198   0.458   1.882
   36EMC      H  537   3.292   0.585   1.962
   36EMC      H  538   3.256   0.570   2.437
   36EMC      H  539   3.101   0.508   2.498
   36EMC      H  540   3.106   0.667   2.419
   37EMC      C  541   3.236   3.609   0.713
   37EMC      C  542   3.164   3.738   0.745
   37EMC      O  543   3.032   3.711   0.792
   37EMC      C  544   2.937   3.698   0.696
   37EMC      O  545   2.955   3.707   0.576
   37EMC      O  546   2.819   3.672   0.757
   37EMC      C  547   2.709   3.656   0.667
   37EMC      H  548   3.238   3.543   0.800
   37EMC      H  549   3.340   3.629   0.682
   37EMC      H  550   3.186   3.555   0.633
   37EMC      H  551   3.217   3.791   0.826
   37EMC      H  552   3.163   3.806   0.659
   37EMC      H  553   2.693   3.748   0.608
   37EMC      H  554   2.619   3.637   0.725
   37EMC      H  555   2.726   3.571   0.601
   38EMC      C  556   1.793   2.700   1.054
   38EMC      C  557   1.730   2.622   0.941
   38EMC      O  558   1.792   2.494   0.929
   38EMC      C  559   1.903   2.490   0.851
   38EMC      O  560   1.954   2.584   0.793
   38EMC      O  561   1.949   2.362   0.850
   38EMC      C  562   2.066   2.343   0.772
   38EMC      H  563   1.788   2.644   1.148
   38EMC      H  564   1.742   2.797   1.068
   38EMC      H  565   1.899   2.720   1.035
   38EMC      H  566   1.624   2.605   0.963
   38EMC      H  567   1.734   2.678   0.847
   38EMC      H  568   2.047   2.368   0.666
   38EMC      H  569   2.094   2.238   0.777
   38EMC      H  570   2.149   2.403   0.811
   39EMC      C  571   0.953   1.721   2.698
   39EMC      C  572   0.898   1.580   2.702
   39EMC      O  573   0.907   1.526   2.834
   39EMC      C  574   1.025   1.466   2.865
   39EMC      O  575   1.121   1.455   2.791
   39EMC      O  576   1.016   1.421   2.992
   39EMC      C  577   1.134   1.355   3.038
   39EMC      H  578   0.901   1.785   2.771
   39EMC      H  579   0.942   1.765   2.598
   39EMC      H  580   1.059   1.723   2.724
   39EMC      H  581   0.792   1.581   2.674
   39EMC      H  582   0.948   1.516   2.628
   39EMC      H  583   1.156   1.266   2.977
   39EMC      H  584   1.117   1.323   3.141
   39EMC      H  585   1.219   1.424   3.038
   40EMC      C  586   2.268   0.201   2.252
   40EMC      C  587   2.344   0.197   2.122
   40EMC      O  588   2.380   0.329   2.079
   40EMC      C  589   2.285   0.394   2.006
   40EMC      O  590   2.176   0.350   1.974
   40EMC      O  591   2.334   0.516   1.975
   40EMC      C  592   2.244   0.596   1.897
   40EMC      H  593   2.326   0.254   2.329
   40EMC      H  594   2.246   0.100   2.288
   40EMC      H  595   2.174   0.255   2.241
   40EMC      H  596   2.439   0.142   2.136
   40EMC      H  597   2.288   0.143   2.044
   40EMC      H  598   2.222   0.547   1.801
   40EMC      H  599   2.293   0.692   1.877
   40EMC      H  600   2.152   0.615   1.952
   41EMC      C  601   2.637   0.764   2.669
   41EMC      C  602   2.498   0.772   2.610
   41EMC      O  603   2.400   0.785   2.713
   41EMC      C  604   2.356   0.668   2.767
   41EMC      O  605   2.392   0.556   2.734
   41EMC      O  606   2.265   0.697   2.863
   41EMC      C  607   2.210   0.582   2.927
   41EMC      H  608   2.657   0.851   2.732
   41EMC      H  609   2.712   0.760   2.589
   41EMC      H  610   2.648   0.675   2.731
   41EMC      H  611   2.489   0.862   2.547
   41EMC      H  612   2.476   0.686   2.544
   41EMC      H  613   2.157   0.519   2.855
   41EMC      H  614   2.138   0.617   3.002
   41EMC      H  615   2.288   0.526   2.978
   42EMC      C  616   0.277   1.414   1.936
   42EMC      C  617   0.418   1.383   1.890
   42EMC      O  618   0.428   1.247   1.848
   42EMC      C  619   0.455   1.158   1.947
   42EMC      O  620   0.471   1.183   2.064
   42EMC      O  621   0.461   1.034   1.891
   42EMC      C  622   0.490   0.930   1.984
   42EMC      H  623   0.205   1.391   1.857
   42EMC      H  624   0.267   1.520   1.962
   42EMC      H  625   0.250   1.354   2.023
   42EMC      H  626   0.443   1.446   1.802
   42EMC      H  627   0.492   1.408   1.967
   42EMC      H  628   0.588   0.945   2.031
   42EMC      H  629   0.493   0.836   1.929
   42EMC      H  630   0.411   0.923   2.059
   43EMC      C  631   2.497   2.409   0.961
   43EMC      C  632   2.581   2.448   1.080
   43EMC      O  633   2.717   2.473   1.040
   43EMC      C  634   2.797   2.363   1.036
   43EMC      O  635   2.764   2.249   1.064
   43EMC      O  636   2.920   2.403   0.997
   43EMC      C  637   3.016   2.297   0.989
   43EMC      H  638   2.503   2.486   0.883
   43EMC      H  639   2.392   2.396   0.990
   43EMC      H  640   2.532   2.316   0.916
   43EMC      H  641   2.543   2.542   1.123
   43EMC      H  642   2.575   2.373   1.160
   43EMC      H  643   3.030   2.250   1.087
   43EMC      H  644   3.111   2.339   0.957
   43EMC      H  645   2.984   2.223   0.915
   44EMC      C  646   0.201   1.076   3.281
   44EMC      C  647   0.225   0.928   3.303
   44EMC      O  648   0.359   0.893   3.267
   44EMC      C  649   0.377   0.863   3.136
   44EMC      O  650   0.292   0.863   3.049
   44EMC      O  651   0.508   0.833   3.118
   44EMC      C  652   0.542   0.798   2.983
   44EMC      H  653   0.274   1.136   3.336
   44EMC      H  654   0.100   1.104   3.315
   44EMC      H  655   0.211   1.102   3.176
   44EMC      H  656   0.214   0.904   3.410
   44EMC      H  657   0.151   0.867   3.250
   44EMC      H  658   0.487   0.709   2.951
   44EMC      H  659   0.649   0.776   2.980
   44EMC      H  660   0.523   0.882   2.916
   45EMC      C  661   0.443   2.163   0.432
   45EMC      C  662   0.364   2.226   0.319
   45EMC      O  663   0.425   2.349   0.279
   45EMC      C  664   0.387   2.459   0.349
   45EMC      O  665   0.307   2.462   0.441
   45EMC      O  666   0.453   2.566   0.299
   45EMC      C  667   0.421   2.689   0.364
   45EMC      H  668   0.548   2.148   0.403
   45EMC      H  669   0.400   2.066   0.459
   45EMC      H  670   0.443   2.227   0.521
   45EMC      H  671   0.365   2.160   0.231
   45EMC      H  672   0.259   2.240   0.346
   45EMC      H  673   0.315   2.713   0.352
   45EMC      H  674   0.479   2.769   0.316
   45EMC      H  675   0.449   2.685   0.469
   46EMC      C  676   1.325   2.424   1.837
   46EMC      C  677   1.390   2.314   1.917
   46EMC      O  678   1.516   2.278   1.859
   46EMC      C  679   1.511   2.185   1.760
   46EMC      O  680   1.411   2.131   1.718
   46EMC      O  681   1.637   2.163   1.716
   46EMC      C  682   1.646   2.067   1.612
   46EMC      H  683   1.391   2.511   1.829
   46EMC      H  684   1.231   2.456   1.885
   46EMC      H  685   1.302   2.392   1.736
   46EMC      H  686   1.411   2.349   2.019
   46EMC      H  687   1.324   2.226   1.927
   46EMC      H  688   1.610   1.969   1.646
   46EMC      H  689   1.752   2.056   1.584
   46EMC      H  690   1.591   2.100   1.524
   47EMC      C  691   3.146   2.272   2.009
   47EMC      C  692   3.175   2.265   2.157
   47EMC      O  693   3.308   2.217   2.180
   47EMC      C  694   3.321   2.082   2.185
   47EMC      O  695   3.231   2.000   2.172
   47EMC      O  696   3.451   2.053   2.207
   47EMC      C  697   3.479   1.913   2.215
   47EMC      H  698   3.221   2.335   1.958
   47EMC      H  699   3.047   2.315   1.991
   47EMC      H  700   3.150   2.174   1.963
   47EMC      H  701   3.170   2.366   2.201
   47EMC      H  702   3.100   2.204   2.210
   47EMC      H  703   3.425   1.867   2.298
   47EMC      H  704   3.586   1.901   2.233
   47EMC      H  705   3.455   1.864   2.120
   48EMC      C  706   3.332   2.942   1.358
   48EMC      C  707   3.286   2.935   1.214
   48EMC      O  708   3.157   2.994   1.200
   48EMC      C  709   3.052   2.910   1.223
   48EMC      O  710   3.059   2.793   1.254
   48EMC      O  711   2.938   2.981   1.206
   48EMC      C  712   2.819   2.905   1.227
   48EMC      H  713   3.331   3.046   1.394
   48EMC      H  714   3.434   2.902   1.368
   48EMC      H  715   3.266   2.885   1.423
   48EMC      H  716   3.355   2.993   1.150
   48EMC      H  717   3.288   2.832   1.176
   48EMC      H  718   2.812   2.822   1.156
   48EMC      H  719   2.733   2.971   1.211
   48EMC      H  720   2.815   2.869   1.330
   49EMC      C  721   3.114   2.960   0.916
   49EMC      C  722   3.115   3.111   0.933
   49EMC      O  723   3.193   3.172   0.830
   49EMC      C  724   3.326   3.181   0.856
   49EMC      O  725   3.383   3.143   0.956
   49EMC      O  726   3.385   3.241   0.749
   49EMC      C  727   3.526   3.258   0.763
   49EMC      H  728   3.077   2.933   0.816
   49EMC      H  729   3.049   2.913   0.991
   49EMC      H  730   3.214   2.919   0.926
   49EMC      H  731   3.012   3.150   0.923
   49EMC      H  732   3.149   3.140   1.033
   49EMC      H  733   3.550   3.322   0.849
   49EMC      H  734   3.564   3.307   0.673
   49EMC      H  735   3.576   3.161   0.773
   50EMC      C  736   1.379   1.934   3.212
   50EMC      C  737   1.451   2.063   3.244
   50EMC      O  738   1.572   2.036   3.315
   50EMC      C  739   1.559   2.026   3.450
   50EMC      O  740   1.456   2.038   3.514
   50EMC      O  741   1.682   2.001   3.502
   50EMC      C  742   1.683   1.988   3.644
   50EMC      H  743   1.444   1.865   3.156
   50EMC      H  744   1.289   1.953   3.152
   50EMC      H  745   1.349   1.882   3.303
   50EMC      H  746   1.479   2.113   3.150
   50EMC      H  747   1.386   2.133   3.299
   50EMC      H  748   1.650   2.082   3.692
   50EMC      H  749   1.786   1.969   3.675
   50EMC      H  750   1.621   1.904   3.676
   51EMC      C  751   1.041   0.978   0.989
   51EMC      C  752   1.017   1.119   1.037
   51EMC      O  753   1.118   1.207   0.987
   51EMC      C  754   1.231   1.215   1.062
   51EMC      O  755   1.253   1.155   1.166
   51EMC      O  756   1.316   1.301   1.001
   51EMC      C  757   1.440   1.319   1.070
   51EMC      H  758   1.046   0.975   0.879
   51EMC      H  759   0.960   0.912   1.022
   51EMC      H  760   1.135   0.939   1.026
   51EMC      H  761   0.921   1.156   0.998
   51EMC      H  762   1.010   1.124   1.146
   51EMC      H  763   1.423   1.361   1.170
   51EMC      H  764   1.500   1.390   1.013
   51EMC      H  765   1.494   1.225   1.076
   52EMC      C  766   2.338   2.698   2.489
   52EMC      C  767   2.414   2.581   2.546
   52EMC      O  768   2.325   2.476   2.583
   52EMC      C  769   2.273   2.485   2.709
   52EMC      O  770   2.296   2.573   2.790
   52EMC      O  771   2.192   2.379   2.728
   52EMC      C  772   2.130   2.376   2.857
   52EMC      H  773   2.275   2.666   2.404
   52EMC      H  774   2.406   2.777   2.455
   52EMC      H  775   2.270   2.741   2.563
   52EMC      H  776   2.482   2.540   2.469
   52EMC      H  777   2.478   2.612   2.630
   52EMC      H  778   2.206   2.369   2.936
   52EMC      H  779   2.067   2.287   2.862
   52EMC      H  780   2.067   2.464   2.871
   53EMC      C  781   3.615   1.511   0.720
   53EMC      C  782   3.584   1.625   0.815
   53EMC      O  783   3.699   1.657   0.894
   53EMC      C  784   3.713   1.584   1.008
   53EMC      O  785   3.639   1.497   1.047
   53EMC      O  786   3.826   1.626   1.071
   53EMC      C  787   3.853   1.558   1.193
   53EMC      H  788   3.702   1.536   0.657
   53EMC      H  789   3.529   1.491   0.655
   53EMC      H  790   3.640   1.420   0.775
   53EMC      H  791   3.559   1.716   0.757
   53EMC      H  792   3.497   1.603   0.878
   53EMC      H  793   3.772   1.573   1.265
   53EMC      H  794   3.945   1.599   1.235
   53EMC      H  795   3.869   1.451   1.175
   54EMC      C  796   0.810   0.829   1.717
   54EMC      C  797   0.727   0.954   1.736
   54EMC      O  798   0.588   0.922   1.742
   54EMC      C  799   0.525   0.915   1.622
   54EMC      O  800   0.575   0.934   1.513
   54EMC      O  801   0.395   0.884   1.645
   54EMC      C  802   0.316   0.874   1.526
   54EMC      H  803   0.788   0.756   1.796
   54EMC      H  804   0.917   0.853   1.719
   54EMC      H  805   0.786   0.781   1.622
   54EMC      H  806   0.753   1.001   1.833
   54EMC      H  807   0.748   1.029   1.659
   54EMC      H  808   0.314   0.970   1.472
   54EMC      H  809   0.214   0.849   1.555
   54EMC      H  810   0.354   0.795   1.461
   55EMC      C  811   2.840   0.837   3.116
   55EMC      C  812   2.868   0.709   3.191
   55EMC      O  813   2.895   0.735   3.329
   55EMC      C  814   3.025   0.765   3.358
   55EMC      O  815   3.117   0.770   3.279
   55EMC      O  816   3.033   0.788   3.491
   55EMC      C  817   3.164   0.820   3.537
   55EMC      H  818   2.758   0.892   3.163
   55EMC      H  819   2.814   0.816   3.012
   55EMC      H  820   2.927   0.903   3.117
   55EMC      H  821   2.779   0.644   3.188
   55EMC      H  822   2.950   0.652   3.144
   55EMC      H  823   3.234   0.737   3.517
   55EMC      H  824   3.160   0.836   3.645
   55EMC      H  825   3.200   0.912   3.489
   56EMC      C  826   1.025   2.419   2.817
   56EMC      C  827   1.022   2.294   2.732
   56EMC      O  828   1.034   2.328   2.593
   56EMC      C  829   0.917   2.357   2.530
   56EMC      O  830   0.806   2.358   2.580
   56EMC      O  831   0.946   2.387   2.401
   56EMC      C  832   0.832   2.420   2.322
   56EMC      H  833   1.116   2.477   2.797
   56EMC      H  834   1.022   2.393   2.924
   56EMC      H  835   0.941   2.484   2.795
   56EMC      H  836   1.108   2.230   2.757
   56EMC      H  837   0.932   2.234   2.751
   56EMC      H  838   0.761   2.335   2.318
   56EMC      H  839   0.866   2.442   2.221
   56EMC      H  840   0.783   2.509   2.362
   57EMC      C  841   1.651   1.666   1.528
   57EMC      C  842   1.756   1.769   1.492
   57EMC      O  843   1.711   1.850   1.383
   57EMC      C  844   1.737   1.799   1.259
   57EMC      O  845   1.793   1.695   1.234
   57EMC      O  846   1.688   1.887   1.168
   57EMC      C  847   1.708   1.846   1.032
   57EMC      H  848   1.555   1.715   1.551
   57EMC      H  849   1.683   1.608   1.616
   57EMC      H  850   1.633   1.597   1.446
   57EMC      H  851   1.772   1.837   1.577
   57EMC      H  852   1.853   1.722   1.471
   57EMC      H  853   1.816   1.837   1.010
   57EMC      H  854   1.666   1.923   0.967
   57EMC      H  855   1.657   1.752   1.012
   58EMC      C  856   2.184   2.757   1.011
   58EMC      C  857   2.196   2.607   0.991
   58EMC      O  858   2.304   2.577   0.902
   58EMC      C  859   2.272   2.580   0.770
   58EMC      O  860   2.163   2.604   0.722
   58EMC      O  861   2.385   2.550   0.700
   58EMC      C  862   2.366   2.548   0.558
   58EMC      H  863   2.279   2.798   1.048
   58EMC      H  864   2.105   2.780   1.084
   58EMC      H  865   2.160   2.808   0.918
   58EMC      H  866   2.218   2.558   1.087
   58EMC      H  867   2.101   2.564   0.955
   58EMC      H  868   2.293   2.472   0.529
   58EMC      H  869   2.462   2.523   0.512
   58EMC      H  870   2.336   2.647   0.522
   59EMC      C  871   1.810   3.260   1.425
   59EMC      C  872   1.811   3.333   1.557
   59EMC      O  873   1.677   3.365   1.598
   59EMC      C  874   1.628   3.482   1.549
   59EMC      O  875   1.687   3.560   1.476
   59EMC      O  876   1.502   3.497   1.596
   59EMC      C  877   1.438   3.617   1.553
   59EMC      H  878   1.747   3.170   1.430
   59EMC      H  879   1.912   3.230   1.397
   59EMC      H  880   1.769   3.323   1.346
   59EMC      H  881   1.853   3.267   1.635
   59EMC      H  882   1.874   3.422   1.554
   59EMC      H  883   1.493   3.705   1.588
   59EMC      H  884   1.337   3.619   1.596
   59EMC      H  885   1.428   3.618   1.444
   60EMC      C  886   2.524   1.813   1.024
   60EMC      C  887   2.440   1.745   1.131
   60EMC      O  888   2.503   1.625   1.174
   60EMC      C  889   2.474   1.514   1.100
   60EMC      O  890   2.401   1.510   1.003
   60EMC      O  891   2.541   1.409   1.154
   60EMC      C  892   2.519   1.286   1.086
   60EMC      H  893   2.626   1.832   1.061
   60EMC      H  894   2.479   1.909   0.995
   60EMC      H  895   2.533   1.751   0.935
   60EMC      H  896   2.433   1.811   1.219
   60EMC      H  897   2.338   1.728   1.096
   60EMC      H  898   2.413   1.257   1.089
   60EMC      H  899   2.577   1.208   1.137
   60EMC      H  900   2.554   1.292   0.982
   61EMC      C  901   2.491   1.801   0.580
   61EMC      C  902   2.341   1.807   0.602
   61EMC      O  903   2.306   1.748   0.727
   61EMC      C  904   2.287   1.613   0.725
   61EMC      O  905   2.297   1.541   0.628
   61EMC      O  906   2.256   1.573   0.850
   61EMC      C  907   2.232   1.433   0.863
   61EMC      H  908   2.544   1.849   0.663
   61EMC      H  909   2.518   1.852   0.487
   61EMC      H  910   2.526   1.698   0.575
   61EMC      H  911   2.308   1.912   0.606
   61EMC      H  912   2.286   1.761   0.519
   61EMC      H  913   2.148   1.402   0.800
   61EMC      H  914   2.208   1.412   0.967
   61EMC      H  915   2.322   1.377   0.836
   62EMC      C  916   1.765   3.116   3.308
   62EMC      C  917   1.628   3.168   3.274
   62EMC      O  918   1.608   3.299   3.327
   62EMC      C  919   1.563   3.303   3.455
   62EMC      O  920   1.537   3.207   3.526
   62EMC      O  921   1.550   3.433   3.491
   62EMC      C  922   1.502   3.452   3.624
   62EMC      H  923   1.843   3.186   3.274
   62EMC      H  924   1.783   3.018   3.262
   62EMC      H  925   1.778   3.106   3.416
   62EMC      H  926   1.618   3.177   3.164
   62EMC      H  927   1.549   3.098   3.306
   62EMC      H  928   1.402   3.408   3.636
   62EMC      H  929   1.495   3.559   3.643
   62EMC      H  930   1.572   3.409   3.697
   63EMC      C  931   3.715   2.806   2.815
   63EMC      C  932   3.755   2.903   2.705
   63EMC      O  933   3.736   2.843   2.577
   63EMC      C  934   3.841   2.769   2.532
   63EMC      O  935   3.946   2.751   2.589
   63EMC      O  936   3.807   2.720   2.410
   63EMC      C  937   3.909   2.640   2.349
   63EMC      H  938   3.612   2.772   2.801
   63EMC      H  939   3.724   2.854   2.914
   63EMC      H  940   3.778   2.718   2.814
   63EMC      H  941   3.690   2.992   2.709
   63EMC      H  942   3.858   2.939   2.719
   63EMC      H  943   4.000   2.699   2.333
   63EMC      H  944   3.872   2.606   2.252
   63EMC      H  945   3.931   2.552   2.411
   64EMC      C  946   0.532   1.892   0.805
   64EMC      C  947   0.559   1.746   0.835
   64EMC      O  948   0.437   1.677   0.866
   64EMC      C  949   0.400   1.683   0.997
   64EMC      O  950   0.460   1.739   1.087
   64EMC      O  951   0.284   1.614   1.010
   64EMC      C  952   0.233   1.612   1.143
   64EMC      H  953   0.458   1.902   0.725
   64EMC      H  954   0.624   1.943   0.775
   64EMC      H  955   0.491   1.943   0.893
   64EMC      H  956   0.600   1.697   0.745
   64EMC      H  957   0.634   1.734   0.914
   64EMC      H  958   0.304   1.562   1.211
   64EMC      H  959   0.140   1.554   1.143
   64EMC      H  960   0.211   1.713   1.178
   65EMC      C  961   3.667   1.068   0.306
   65EMC      C  962   3.642   0.971   0.419
   65EMC      O  963   3.652   0.836   0.373
   65EMC      C  964   3.537   0.785   0.321
   65EMC      O  965   3.431   0.842   0.311
   65EMC      O  966   3.563   0.657   0.282
   65EMC      C  967   3.451   0.590   0.225
   65EMC      H  968   3.765   1.049   0.260
   65EMC      H  969   3.666   1.172   0.343
   65EMC      H  970   3.592   1.058   0.228
   65EMC      H  971   3.719   0.984   0.497
   65EMC      H  972   3.546   0.991   0.468
   65EMC      H  973   3.369   0.582   0.299
   65EMC      H  974   3.482   0.489   0.198
   65EMC      H  975   3.417   0.641   0.135
   66EMC      C  976   1.938   0.667   1.494
   66EMC      C  977   1.789   0.650   1.477
   66EMC      O  978   1.736   0.751   1.391
   66EMC      C  979   1.702   0.868   1.451
   66EMC      O  980   1.712   0.893   1.570
   66EMC      O  981   1.654   0.952   1.356
   66EMC      C  982   1.615   1.079   1.406
   66EMC      H  983   1.988   0.666   1.396
   66EMC      H  984   1.979   0.586   1.555
   66EMC      H  985   1.962   0.762   1.541
   66EMC      H  986   1.767   0.553   1.430
   66EMC      H  987   1.737   0.649   1.574
   66EMC      H  988   1.533   1.069   1.479
   66EMC      H  989   1.578   1.139   1.322
   66EMC      H  990   1.700   1.131   1.450
   67EMC      C  991   0.718   1.274   2.148
   67EMC      C  992   0.623   1.374   2.209
   67EMC      O  993   0.674   1.422   2.334
   67EMC      C  994   0.642   1.346   2.442
   67EMC      O  995   0.577   1.244   2.442
   67EMC      O  996   0.698   1.404   2.551
   67EMC      C  997   0.672   1.334   2.673
   67EMC      H  998   0.818   1.318   2.136
   67EMC      H  999   0.683   1.242   2.049
   67EMC      H 1000   0.729   1.186   2.211
   67EMC      H 1001   0.613   1.462   2.143
   67EMC      H 1002   0.522   1.332   2.219
   67EMC      H 1003   0.564   1.330   2.694
   67EMC      H 1004   0.720   1.389   2.754
   67EMC      H 1005   0.715   1.234   2.670
   68EMC      C 1006   2.669   2.132   3.773
   68EMC      C 1007   2.567   2.028   3.734
   68EMC      O 1008   2.631   1.910   3.685
   68EMC      C 1009   2.660   1.912   3.552
   68EMC      O 1010   2.636   2.002   3.474
   68EMC      O 1011   2.720   1.794   3.521
   68EMC      C 1012   2.756   1.781   3.384
   68EMC      H 1013   2.740   2.092   3.846
   68EMC      H 1014   2.620   2.221   3.816
   68EMC      H 1015   2.727   2.164   3.686
   68EMC      H 1016   2.509   1.998   3.823
   68EMC      H 1017   2.494   2.068   3.662
   68EMC      H 1018   2.667   1.786   3.319
   68EMC      H 1019   2.803   1.684   3.370
   68EMC      H 1020   2.828   1.859   3.356
   69EMC      C 1021   0.295   0.421   1.746
   69EMC      C 1022   0.336   0.566   1.748
   69EMC      O 1023   0.478   0.578   1.754
   69EMC      C 1024   0.532   0.575   1.878
   69EMC      O 1025   0.471   0.563   1.983
   69EMC      O 1026   0.666   0.587   1.866
   69EMC      C 1027   0.736   0.585   1.991
   69EMC      H 1028   0.343   0.368   1.662
   69EMC      H 1029   0.186   0.411   1.735
   69EMC      H 1030   0.325   0.370   1.837
   69EMC      H 1031   0.303   0.615   1.655
   69EMC      H 1032   0.287   0.621   1.830
   69EMC      H 1033   0.705   0.670   2.054
   69EMC      H 1034   0.843   0.596   1.970
   69EMC      H 1035   0.721   0.490   2.042
   70EMC      C 1036   2.988   0.461   3.742
   70EMC      C 1037   3.056   0.489   3.610
   70EMC      O 1038   2.960   0.491   3.504
   70EMC      C 1039   2.933   0.370   3.449
   70EMC      O 1040   2.982   0.263   3.481
   70EMC      O 1041   2.841   0.389   3.351
   70EMC      C 1042   2.803   0.269   3.283
   70EMC      H 1043   2.908   0.534   3.761
   70EMC      H 1044   3.060   0.466   3.825
   70EMC      H 1045   2.942   0.362   3.743
   70EMC      H 1046   3.102   0.589   3.613
   70EMC      H 1047   3.137   0.418   3.591
   70EMC      H 1048   2.890   0.223   3.233
   70EMC      H 1049   2.730   0.295   3.206
   70EMC      H 1050   2.757   0.198   3.353
   71EMC      C 1051   2.568   2.692   2.014
   71EMC      C 1052   2.591   2.766   2.144
   71EMC      O 1053   2.468   2.813   2.198
   71EMC      C 1054   2.427   2.935   2.151
   71EMC      O 1055   2.486   3.004   2.071
   71EMC      O 1056   2.310   2.965   2.211
   71EMC      C 1057   2.255   3.091   2.172
   71EMC      H 1058   2.496   2.610   2.029
   71EMC      H 1059   2.661   2.649   1.976
   71EMC      H 1060   2.526   2.757   1.938
   71EMC      H 1061   2.634   2.697   2.219
   71EMC      H 1062   2.664   2.847   2.131
   71EMC      H 1063   2.324   3.173   2.198
   71EMC      H 1064   2.161   3.106   2.226
   71EMC      H 1065   2.234   3.092   2.065
   72EMC      C 1066   3.053   2.802   3.540
   72EMC      C 1067   3.086   2.658   3.572
   72EMC      O 1068   3.223   2.646   3.611
   72EMC      C 1069   3.311   2.630   3.508
   72EMC      O 1070   3.284   2.625   3.390
   72EMC      O 1071   3.435   2.620   3.562
   72EMC      C 1072   3.539   2.603   3.465
   72EMC      H 1073   3.076   2.867   3.626
   72EMC      H 1074   2.946   2.813   3.516
   72EMC      H 1075   3.111   2.839   3.456
   72EMC      H 1076   3.025   2.624   3.657
   72EMC      H 1077   3.062   2.592   3.488
   72EMC      H 1078   3.524   2.510   3.409
   72EMC      H 1079   3.634   2.596   3.518
   72EMC      H 1080   3.543   2.689   3.398
   73EMC      C 1081   1.552   1.572   3.937
   73EMC      C 1082   1.594   1.538   3.796
   73EMC      O 1083   1.480   1.505   3.716
   73EMC      C 1084   1.441   1.375   3.721
   73EMC      O 1085   1.492   1.287   3.787
   73EMC      O 1086   1.333   1.361   3.641
   73EMC      C 1087   1.280   1.229   3.637
   73EMC      H 1088   1.479   1.654   3.936
   73EMC      H 1089   1.639   1.603   3.997
   73EMC      H 1090   1.504   1.488   3.986
   73EMC      H 1091   1.642   1.625   3.749
   73EMC      H 1092   1.669   1.457   3.795
   73EMC      H 1093   1.355   1.158   3.598
   73EMC      H 1094   1.194   1.228   3.569
   73EMC      H 1095   1.246   1.198   3.736
   74EMC      C 1096   0.756   3.035   1.802
   74EMC      C 1097   0.827   2.974   1.920
   74EMC      O 1098   0.861   3.074   2.016
   74EMC      C 1099   0.980   3.137   1.994
   74EMC      O 1100   1.057   3.115   1.903
   74EMC      O 1101   0.997   3.228   2.093
   74EMC      C 1102   1.119   3.302   2.083
   74EMC      H 1103   0.667   3.091   1.835
   74EMC      H 1104   0.724   2.958   1.731
   74EMC      H 1105   0.820   3.106   1.749
   74EMC      H 1106   0.760   2.903   1.971
   74EMC      H 1107   0.915   2.916   1.889
   74EMC      H 1108   1.206   3.235   2.090
   74EMC      H 1109   1.123   3.372   2.166
   74EMC      H 1110   1.122   3.359   1.990
   75EMC      C 1111   1.303   2.122   2.359
   75EMC      C 1112   1.163   2.162   2.400
   75EMC      O 1113   1.067   2.119   2.302
   75EMC      C 1114   1.047   2.205   2.199
   75EMC      O 1115   1.101   2.313   2.183
   75EMC      O 1116   0.955   2.149   2.116
   75EMC      C 1117   0.924   2.230   2.003
   75EMC      H 1118   1.309   2.014   2.342
   75EMC      H 1119   1.375   2.150   2.437
   75EMC      H 1120   1.332   2.171   2.266
   75EMC      H 1121   1.136   2.112   2.494
   75EMC      H 1122   1.155   2.270   2.419
   75EMC      H 1123   0.881   2.326   2.034
   75EMC      H 1124   0.849   2.177   1.943
   75EMC      H 1125   1.012   2.246   1.941
   76EMC      C 1126   2.245   3.256   2.556
   76EMC      C 1127   2.294   3.151   2.653
   76EMC      O 1128   2.436   3.150   2.660
   76EMC      C 1129   2.498   3.072   2.566
   76EMC      O 1130   2.443   3.006   2.481
   76EMC      O 1131   2.632   3.083   2.586
   76EMC      C 1132   2.710   3.006   2.494
   76EMC      H 1133   2.285   3.354   2.583
   76EMC      H 1134   2.135   3.261   2.556
   76EMC      H 1135   2.279   3.234   2.455
   76EMC      H 1136   2.257   3.174   2.755
   76EMC      H 1137   2.253   3.051   2.629
   76EMC      H 1138   2.687   2.899   2.504
   76EMC      H 1139   2.815   3.021   2.518
   76EMC      H 1140   2.693   3.039   2.392
   77EMC      C 1141   1.829   3.604   1.770
   77EMC      C 1142   1.819   3.488   1.867
   77EMC      O 1143   1.911   3.505   1.975
   77EMC      C 1144   2.036   3.457   1.951
   77EMC      O 1145   2.075   3.403   1.850
   77EMC      O 1146   2.111   3.481   2.062
   77EMC      C 1147   2.246   3.436   2.052
   77EMC      H 1148   1.813   3.699   1.822
   77EMC      H 1149   1.754   3.594   1.690
   77EMC      H 1150   1.927   3.609   1.724
   77EMC      H 1151   1.718   3.486   1.911
   77EMC      H 1152   1.833   3.392   1.816
   77EMC      H 1153   2.249   3.327   2.037
   77EMC      H 1154   2.296   3.459   2.146
   77EMC      H 1155   2.298   3.487   1.971
   78EMC      C 1156   2.152   1.549   1.812
   78EMC      C 1157   2.290   1.555   1.875
   78EMC      O 1158   2.293   1.651   1.980
   78EMC      C 1159   2.321   1.778   1.941
   78EMC      O 1160   2.342   1.816   1.827
   78EMC      O 1161   2.320   1.857   2.051
   78EMC      C 1162   2.348   1.994   2.025
   78EMC      H 1163   2.076   1.528   1.888
   78EMC      H 1164   2.148   1.470   1.735
   78EMC      H 1165   2.126   1.644   1.766
   78EMC      H 1166   2.314   1.457   1.920
   78EMC      H 1167   2.368   1.574   1.799
   78EMC      H 1168   2.448   2.006   1.982
   78EMC      H 1169   2.345   2.048   2.120
   78EMC      H 1170   2.272   2.037   1.959
   79EMC      C 1171   3.091   3.803   2.812
   79EMC      C 1172   3.042   3.908   2.909
   79EMC      O 1173   2.915   3.872   2.964
   79EMC      C 1174   2.808   3.909   2.890
   79EMC      O 1175   2.810   3.970   2.785
   79EMC      O 1176   2.696   3.867   2.955
   79EMC      C 1177   2.574   3.901   2.888
   79EMC      H 1178   3.094   3.704   2.861
   79EMC      H 1179   3.191   3.827   2.775
   79EMC      H 1180   3.024   3.793   2.727
   79EMC      H 1181   3.112   3.915   2.994
   79EMC      H 1182   3.040   4.007   2.863
   79EMC      H 1183   2.563   4.010   2.879
   79EMC      H 1184   2.491   3.863   2.948
   79EMC      H 1185   2.570   3.853   2.790
   80EMC      C 1186   1.840   0.195   3.474
   80EMC      C 1187   1.923   0.199   3.348
   80EMC      O 1188   2.032   0.291   3.362
   80EMC      C 1189   2.003   0.420   3.331
   80EMC      O 1190   1.896   0.463   3.294
   80EMC      O 1191   2.116   0.493   3.350
   80EMC      C 1192   2.100   0.632   3.321
   80EMC      H 1193   1.903   0.170   3.561
   80EMC      H 1194   1.760   0.121   3.466
   80EMC      H 1195   1.795   0.292   3.495
   80EMC      H 1196   1.967   0.100   3.329
   80EMC      H 1197   1.861   0.223   3.260
   80EMC      H 1198   2.073   0.647   3.215
   80EMC      H 1199   2.196   0.681   3.338
   80EMC      H 1200   2.026   0.677   3.387
   81EMC      C 1201   0.649   1.571   1.159
   81EMC      C 1202   0.779   1.500   1.125
   81EMC      O 1203   0.760   1.359   1.123
   81EMC      C 1204   0.774   1.297   1.243
   81EMC      O 1205   0.800   1.350   1.349
   81EMC      O 1206   0.753   1.164   1.224
   81EMC      C 1207   0.764   1.086   1.343
   81EMC      H 1208   0.570   1.541   1.088
   81EMC      H 1209   0.662   1.680   1.154
   81EMC      H 1210   0.615   1.544   1.258
   81EMC      H 1211   0.811   1.530   1.023
   81EMC      H 1212   0.860   1.530   1.193
   81EMC      H 1213   0.866   1.094   1.386
   81EMC      H 1214   0.746   0.982   1.317
   81EMC      H 1215   0.690   1.117   1.417
   82EMC      C 1216   0.982   2.133   1.663
   82EMC      C 1217   0.846   2.093   1.611
   82EMC      O 1218   0.853   1.972   1.536
   82EMC      C 1219   0.885   1.986   1.405
   82EMC      O 1220   0.906   2.091   1.347
   82EMC      O 1221   0.888   1.862   1.349
   82EMC      C 1222   0.920   1.862   1.210
   82EMC      H 1223   1.025   2.051   1.723
   82EMC      H 1224   0.975   2.223   1.725
   82EMC      H 1225   1.051   2.152   1.581
   82EMC      H 1226   0.777   2.075   1.696
   82EMC      H 1227   0.800   2.174   1.552
   82EMC      H 1228   0.844   1.918   1.153
   82EMC      H 1229   0.920   1.759   1.175
   82EMC      H 1230   1.019   1.904   1.193
   83EMC      C 1231   1.799   0.596   1.106
   83EMC      C 1232   1.768   0.599   0.958
   83EMC      O 1233   1.638   0.548   0.932
   83EMC      C 1234   1.630   0.413   0.917
   83EMC      O 1235   1.723   0.334   0.923
   83EMC      O 1236   1.501   0.380   0.894
   83EMC      C 1237   1.478   0.241   0.875
   83EMC      H 1238   1.722   0.651   1.162
   83EMC      H 1239   1.897   0.641   1.127
   83EMC      H 1240   1.799   0.494   1.144
   83EMC      H 1241   1.769   0.703   0.922
   83EMC      H 1242   1.845   0.546   0.900
   83EMC      H 1243   1.534   0.203   0.788
   83EMC      H 1244   1.372   0.226   0.857
   83EMC      H 1245   1.506   0.185   0.965
   84EMC      C 1246   0.456   1.407   0.326
   84EMC      C 1247   0.316   1.394   0.379
   84EMC      O 1248   0.246   1.518   0.370
   84EMC      C 1249   0.264   1.602   0.476
   84EMC      O 1250   0.331   1.581   0.574
   84EMC      O 1251   0.192   1.715   0.452
   84EMC      C 1252   0.201   1.813   0.555
   84EMC      H 1253   0.455   1.445   0.223
   84EMC      H 1254   0.508   1.310   0.327
   84EMC      H 1255   0.514   1.478   0.385
   84EMC      H 1256   0.259   1.321   0.318
   84EMC      H 1257   0.315   1.354   0.482
   84EMC      H 1258   0.162   1.773   0.650
   84EMC      H 1259   0.140   1.899   0.526
   84EMC      H 1260   0.304   1.846   0.567
   85EMC      C 1261   1.302   3.163   1.582
   85EMC      C 1262   1.188   3.192   1.676
   85EMC      O 1263   1.087   3.092   1.665
   85EMC      C 1264   0.994   3.113   1.568
   85EMC      O 1265   0.990   3.208   1.492
   85EMC      O 1266   0.906   3.010   1.571
   85EMC      C 1267   0.802   3.020   1.473
   85EMC      H 1268   1.343   3.062   1.600
   85EMC      H 1269   1.383   3.236   1.595
   85EMC      H 1270   1.269   3.165   1.478
   85EMC      H 1271   1.224   3.190   1.780
   85EMC      H 1272   1.147   3.293   1.660
   85EMC      H 1273   0.742   3.110   1.489
   85EMC      H 1274   0.738   2.933   1.484
   85EMC      H 1275   0.844   3.019   1.372
   86EMC      C 1276   0.631   1.468   3.776
   86EMC      C 1277   0.497   1.462   3.846
   86EMC      O 1278   0.394   1.424   3.756
   86EMC      C 1279   0.337   1.526   3.685
   86EMC      O 1280   0.366   1.643   3.694
   86EMC      O 1281   0.242   1.473   3.604
   86EMC      C 1282   0.174   1.570   3.524
   86EMC      H 1283   0.653   1.371   3.728
   86EMC      H 1284   0.711   1.491   3.847
   86EMC      H 1285   0.631   1.543   3.698
   86EMC      H 1286   0.500   1.385   3.926
   86EMC      H 1287   0.474   1.557   3.897
   86EMC      H 1288   0.121   1.642   3.588
   86EMC      H 1289   0.100   1.517   3.464
   86EMC      H 1290   0.244   1.620   3.458
   87EMC      C 1291   0.868   1.422   1.723
   87EMC      C 1292   0.749   1.515   1.725
   87EMC      O 1293   0.630   1.446   1.688
   87EMC      C 1294   0.606   1.440   1.554
   87EMC      O 1295   0.675   1.489   1.466
   87EMC      O 1296   0.491   1.372   1.535
   87EMC      C 1297   0.453   1.359   1.398
   87EMC      H 1298   0.851   1.335   1.787
   87EMC      H 1299   0.959   1.474   1.758
   87EMC      H 1300   0.887   1.384   1.622
   87EMC      H 1301   0.733   1.552   1.828
   87EMC      H 1302   0.766   1.604   1.663
   87EMC      H 1303   0.436   1.457   1.353
   87EMC      H 1304   0.360   1.302   1.394
   87EMC      H 1305   0.529   1.303   1.342
   88EMC      C 1306   3.822   1.881   0.253
   88EMC      C 1307   3.842   1.857   0.401
   88EMC      O 1308   3.738   1.774   0.453
   88EMC      C 1309   3.626   1.840   0.492
   88EMC      O 1310   3.607   1.959   0.488
   88EMC      O 1311   3.538   1.747   0.539
   88EMC      C 1312   3.414   1.802   0.584
   88EMC      H 1313   3.815   1.786   0.199
   88EMC      H 1314   3.905   1.940   0.211
   88EMC      H 1315   3.729   1.935   0.234
   88EMC      H 1316   3.937   1.804   0.417
   88EMC      H 1317   3.850   1.952   0.456
   88EMC      H 1318   3.431   1.871   0.668
   88EMC      H 1319   3.351   1.720   0.619
   88EMC      H 1320   3.362   1.853   0.503
   89EMC      C 1321   3.259   3.878   3.280
   89EMC      C 1322   3.290   3.749   3.353
   89EMC      O 1323   3.430   3.722   3.350
   89EMC      C 1324   3.473   3.654   3.240
   89EMC      O 1325   3.405   3.616   3.147
   89EMC      O 1326   3.607   3.637   3.252
   89EMC      C 1327   3.667   3.566   3.143
   89EMC      H 1328   3.317   3.961   3.322
   89EMC      H 1329   3.152   3.902   3.287
   89EMC      H 1330   3.285   3.871   3.174
   89EMC      H 1331   3.262   3.760   3.459
   89EMC      H 1332   3.231   3.665   3.313
   89EMC      H 1333   3.625   3.465   3.135
   89EMC      H 1334   3.774   3.557   3.163
   89EMC      H 1335   3.653   3.621   3.050
   90EMC      C 1336   1.769   1.581   2.818
   90EMC      C 1337   1.777   1.453   2.737
   90EMC      O 1338   1.697   1.351   2.796
   90EMC      C 1339   1.759   1.277   2.892
   90EMC      O 1340   1.874   1.291   2.930
   90EMC      O 1341   1.670   1.186   2.938
   90EMC      C 1342   1.723   1.101   3.040
   90EMC      H 1343   1.665   1.613   2.830
   90EMC      H 1344   1.826   1.661   2.769
   90EMC      H 1345   1.810   1.566   2.918
   90EMC      H 1346   1.736   1.471   2.636
   90EMC      H 1347   1.881   1.421   2.722
   90EMC      H 1348   1.808   1.042   3.003
   90EMC      H 1349   1.644   1.031   3.070
   90EMC      H 1350   1.752   1.159   3.128
   91EMC      C 1351   2.072   0.652   3.926
   91EMC      C 1352   2.059   0.549   3.815
   91EMC      O 1353   1.947   0.581   3.731
   91EMC      C 1354   1.828   0.531   3.773
   91EMC      O 1355   1.808   0.465   3.873
   91EMC      O 1356   1.733   0.570   3.684
   91EMC      C 1357   1.601   0.524   3.716
   91EMC      H 1358   2.080   0.753   3.884
   91EMC      H 1359   2.162   0.632   3.986
   91EMC      H 1360   1.985   0.651   3.991
   91EMC      H 1361   2.148   0.552   3.751
   91EMC      H 1362   2.052   0.447   3.855
   91EMC      H 1363   1.597   0.414   3.717
   91EMC      H 1364   1.534   0.560   3.638
   91EMC      H 1365   1.569   0.565   3.811
   92EMC      C 1366   2.666   2.183   1.947
   92EMC      C 1367   2.706   2.048   2.001
   92EMC      O 1368   2.848   2.037   2.007
   92EMC      C 1369   2.908   1.994   1.893
   92EMC      O 1370   2.852   1.964   1.789
   92EMC      O 1371   3.041   1.989   1.915
   92EMC      C 1372   3.117   1.944   1.803
   92EMC      H 1373   2.710   2.264   2.007
   92EMC      H 1374   2.556   2.195   1.948
   92EMC      H 1375   2.701   2.197   1.845
   92EMC      H 1376   2.668   2.037   2.104
   92EMC      H 1377   2.661   1.967   1.943
   92EMC      H 1378   3.089   1.842   1.774
   92EMC      H 1379   3.223   1.944   1.831
   92EMC      H 1380   3.105   2.013   1.719
   93EMC      C 1381   0.723   1.544   3.043
   93EMC      C 1382   0.682   1.537   3.188
   93EMC      O 1383   0.571   1.624   3.213
   93EMC      C 1384   0.603   1.752   3.242
   93EMC      O 1385   0.715   1.799   3.249
   93EMC      O 1386   0.487   1.821   3.262
   93EMC      C 1387   0.506   1.959   3.294
   93EMC      H 1388   0.639   1.520   2.977
   93EMC      H 1389   0.805   1.473   3.023
   93EMC      H 1390   0.757   1.644   3.016
   93EMC      H 1391   0.648   1.435   3.213
   93EMC      H 1392   0.766   1.559   3.255
   93EMC      H 1393   0.563   1.969   3.387
   93EMC      H 1394   0.408   2.004   3.308
   93EMC      H 1395   0.557   2.010   3.212
   94EMC      C 1396   0.274   3.886   3.272
   94EMC      C 1397   0.337   3.899   3.409
   94EMC      O 1398   0.407   3.780   3.444
   94EMC      C 1399   0.331   3.683   3.502
   94EMC      O 1400   0.213   3.690   3.527
   94EMC      O 1401   0.412   3.578   3.529
   94EMC      C 1402   0.345   3.468   3.592
   94EMC      H 1403   0.350   3.861   3.197
   94EMC      H 1404   0.226   3.980   3.242
   94EMC      H 1405   0.200   3.807   3.270
   94EMC      H 1406   0.411   3.981   3.408
   94EMC      H 1407   0.262   3.927   3.485
   94EMC      H 1408   0.304   3.498   3.689
   94EMC      H 1409   0.419   3.389   3.609
   94EMC      H 1410   0.267   3.429   3.527
   95EMC      C 1411   0.931   2.120   3.366
   95EMC      C 1412   1.014   2.002   3.320
   95EMC      O 1413   0.934   1.884   3.312
   95EMC      C 1414   0.923   1.814   3.427
   95EMC      O 1415   0.973   1.842   3.534
   95EMC      O 1416   0.844   1.706   3.403
   95EMC      C 1417   0.824   1.622   3.516
   95EMC      H 1418   0.844   2.134   3.299
   95EMC      H 1419   0.990   2.212   3.366
   95EMC      H 1420   0.891   2.104   3.466
   95EMC      H 1421   1.053   2.022   3.219
   95EMC      H 1422   1.102   1.988   3.385
   95EMC      H 1423   0.919   1.581   3.552
   95EMC      H 1424   0.760   1.539   3.486
   95EMC      H 1425   0.773   1.677   3.596
   96EMC      C 1426   2.278   1.180   2.044
   96EMC      C 1427   2.226   1.119   2.172
   96EMC      O 1428   2.137   1.011   2.144
   96EMC      C 1429   2.007   1.046   2.124
   96EMC      O 1430   1.962   1.159   2.127
   96EMC      O 1431   1.937   0.933   2.098
   96EMC      C 1432   1.798   0.955   2.075
   96EMC      H 1433   2.327   1.103   1.982
   96EMC      H 1434   2.351   1.259   2.066
   96EMC      H 1435   2.197   1.222   1.985
   96EMC      H 1436   2.310   1.078   2.231
   96EMC      H 1437   2.178   1.195   2.236
   96EMC      H 1438   1.750   1.000   2.163
   96EMC      H 1439   1.751   0.858   2.056
   96EMC      H 1440   1.783   1.018   1.987
   97EMC      C 1441   0.207   0.777   0.388
   97EMC      C 1442   0.228   0.906   0.312
   97EMC      O 1443   0.366   0.926   0.283
   97EMC      C 1444   0.437   0.988   0.381
   97EMC      O 1445   0.393   1.028   0.488
   97EMC      O 1446   0.565   0.999   0.339
   97EMC      C 1447   0.652   1.064   0.433
   97EMC      H 1448   0.249   0.692   0.333
   97EMC      H 1449   0.100   0.758   0.405
   97EMC      H 1450   0.257   0.780   0.485
   97EMC      H 1451   0.176   0.900   0.215
   97EMC      H 1452   0.184   0.992   0.365
   97EMC      H 1453   0.618   1.167   0.452
   97EMC      H 1454   0.752   1.068   0.390
   97EMC      H 1455   0.657   1.007   0.526
   98EMC      C 1456   3.453   1.045   3.686
   98EMC      C 1457   3.451   1.164   3.592
   98EMC      O 1458   3.318   1.192   3.548
   98EMC      C 1459   3.276   1.121   3.439
   98EMC      O 1460   3.342   1.040   3.377
   98EMC      O 1461   3.149   1.159   3.411
   98EMC      C 1462   3.093   1.093   3.298
   98EMC      H 1463   3.385   1.063   3.771
   98EMC      H 1464   3.554   1.028   3.724
   98EMC      H 1465   3.418   0.955   3.636
   98EMC      H 1466   3.487   1.254   3.645
   98EMC      H 1467   3.519   1.149   3.507
   98EMC      H 1468   3.151   1.115   3.207
   98EMC      H 1469   2.991   1.130   3.284
   98EMC      H 1470   3.088   0.985   3.315
   99EMC      C 1471   3.934   2.264   1.698
   99EMC      C 1472   3.834   2.364   1.751
   99EMC      O 1473   3.755   2.305   1.856
   99EMC      C 1474   3.646   2.236   1.814
   99EMC      O 1475   3.609   2.221   1.699
   99EMC      O 1476   3.583   2.188   1.924
   99EMC      C 1477   3.465   2.113   1.896
   99EMC      H 1478   3.998   2.227   1.780
   99EMC      H 1479   3.999   2.311   1.623
   99EMC      H 1480   3.885   2.178   1.654
   99EMC      H 1481   3.886   2.450   1.795
   99EMC      H 1482   3.771   2.404   1.671
   99EMC      H 1483   3.390   2.176   1.845
   99EMC      H 1484   3.423   2.079   1.990
   99EMC      H 1485   3.489   2.025   1.835
  100EMC      C 1486   0.814   3.593   3.921
  100EMC      C 1487   0.779   3.473   3.835
  100EMC      O 1488   0.897   3.415   3.780
  100EMC      C 1489   0.940   3.470   3.663
  100EMC      O 1490   0.887   3.561   3.603
  100EMC      O 1491   1.052   3.404   3.625
  100EMC      C 1492   1.108   3.451   3.503
  100EMC      H 1493   0.885   3.564   4.000
  100EMC      H 1494   0.724   3.634   3.969
  100EMC      H 1495   0.861   3.671   3.863
  100EMC      H 1496   0.731   3.396   3.897
  100EMC      H 1497   0.706   3.500   3.757
  100EMC      H 1498   1.037   3.438   3.420
  100EMC      H 1499   1.197   3.391   3.481
  100EMC      H 1500   1.138   3.556   3.512
  101EMC      C 1501   1.324   0.863   2.945
  101EMC      C 1502   1.237   0.905   2.829
  101EMC      O 1503   1.164   1.024   2.861
  101EMC      C 1504   1.046   1.004   2.925
  101EMC      O 1505   0.998   0.896   2.956
  101EMC      O 1506   0.990   1.125   2.949
  101EMC      C 1507   0.864   1.119   3.016
  101EMC      H 1508   1.391   0.945   2.975
  101EMC      H 1509   1.385   0.776   2.919
  101EMC      H 1510   1.264   0.838   3.033
  101EMC      H 1511   1.300   0.929   2.742
  101EMC      H 1512   1.170   0.824   2.797
  101EMC      H 1513   0.790   1.064   2.955
  101EMC      H 1514   0.828   1.221   3.029
  101EMC      H 1515   0.875   1.073   3.114
  102EMC      C 1516   3.271   2.711   0.451
  102EMC      C 1517   3.247   2.830   0.362
  102EMC      O 1518   3.370   2.881   0.311
  102EMC      C 1519   3.432   2.972   0.392
  102EMC      O 1520   3.392   3.012   0.499
  102EMC      O 1521   3.547   3.010   0.330
  102EMC      C 1522   3.622   3.106   0.404
  102EMC      H 1523   3.328   2.633   0.398
  102EMC      H 1524   3.176   2.667   0.485
  102EMC      H 1525   3.329   2.739   0.539
  102EMC      H 1526   3.187   2.799   0.274
  102EMC      H 1527   3.188   2.907   0.413
  102EMC      H 1528   3.565   3.199   0.419
  102EMC      H 1529   3.712   3.130   0.346
  102EMC      H 1530   3.654   3.065   0.500
  103EMC      C 1531   0.846   2.623   3.711
  103EMC      C 1532   0.846   2.692   3.845
  103EMC      O 1533   0.714   2.699   3.899
  103EMC      C 1534   0.640   2.806   3.859
  103EMC      O 1535   0.677   2.895   3.783
  103EMC      O 1536   0.519   2.798   3.918
  103EMC      C 1537   0.430   2.905   3.884
  103EMC      H 1538   0.801   2.523   3.719
  103EMC      H 1539   0.948   2.612   3.672
  103EMC      H 1540   0.787   2.678   3.638
  103EMC      H 1541   0.907   2.634   3.917
  103EMC      H 1542   0.893   2.792   3.839
  103EMC      H 1543   0.472   3.001   3.917
  103EMC      H 1544   0.336   2.888   3.937
  103EMC      H 1545   0.410   2.906   3.777
  104EMC      C 1546   1.800   0.189   2.062
  104EMC      C 1547   1.860   0.315   2.005
  104EMC      O 1548   1.843   0.319   1.863
  104EMC      C 1549   1.940   0.256   1.791
  104EMC      O 1550   2.037   0.199   1.835
  104EMC      O 1551   1.908   0.269   1.659
  104EMC      C 1552   2.003   0.208   1.571
  104EMC      H 1553   1.694   0.180   2.034
  104EMC      H 1554   1.808   0.188   2.171
  104EMC      H 1555   1.850   0.100   2.023
  104EMC      H 1556   1.808   0.403   2.046
  104EMC      H 1557   1.966   0.326   2.033
  104EMC      H 1558   2.102   0.253   1.582
  104EMC      H 1559   1.969   0.224   1.469
  104EMC      H 1560   2.007   0.100   1.589
  105EMC      C 1561   1.725   3.801   0.672
  105EMC      C 1562   1.787   3.939   0.681
  105EMC      O 1563   1.928   3.930   0.704
  105EMC      C 1564   1.964   3.919   0.834
  105EMC      O 1565   1.890   3.918   0.930
  105EMC      O 1566   2.100   3.911   0.839
  105EMC      C 1567   2.153   3.900   0.971
  105EMC      H 1568   1.775   3.742   0.594
  105EMC      H 1569   1.618   3.808   0.648
  105EMC      H 1570   1.737   3.746   0.765
  105EMC      H 1571   1.774   3.992   0.585
  105EMC      H 1572   1.737   4.000   0.757
  105EMC      H 1573   2.126   3.989   1.031
  105EMC      H 1574   2.261   3.895   0.964
  105EMC      H 1575   2.117   3.809   1.019
  106EMC      C 1576   3.337   2.496   3.154
  106EMC      C 1577   3.187   2.487   3.167
  106EMC      O 1578   3.123   2.588   3.089
  106EMC      C 1579   3.108   2.708   3.150
  106EMC      O 1580   3.142   2.736   3.264
  106EMC      O 1581   3.047   2.792   3.063
  106EMC      C 1582   3.024   2.923   3.115
  106EMC      H 1583   3.367   2.490   3.049
  106EMC      H 1584   3.386   2.415   3.210
  106EMC      H 1585   3.375   2.591   3.193
  106EMC      H 1586   3.152   2.390   3.128
  106EMC      H 1587   3.155   2.491   3.273
  106EMC      H 1588   2.958   2.919   3.203
  106EMC      H 1589   2.975   2.982   3.038
  106EMC      H 1590   3.119   2.972   3.140
  107EMC      C 1591   0.335   1.057   2.321
  107EMC      C 1592   0.195   1.093   2.277
  107EMC      O 1593   0.149   1.003   2.176
  107EMC      C 1594   0.183   1.037   2.048
  107EMC      O 1595   0.247   1.135   2.014
  107EMC      O 1596   0.132   0.943   1.965
  107EMC      C 1597   0.161   0.966   1.827
  107EMC      H 1598   0.338   0.952   2.355
  107EMC      H 1599   0.368   1.122   2.403
  107EMC      H 1600   0.405   1.066   2.239
  107EMC      H 1601   0.125   1.083   2.362
  107EMC      H 1602   0.189   1.198   2.244
  107EMC      H 1603   0.116   1.061   1.794
  107EMC      H 1604   0.116   0.884   1.770
  107EMC      H 1605   0.268   0.965   1.810
  108EMC      C 1606   1.121   1.745   0.474
  108EMC      C 1607   1.158   1.814   0.345
  108EMC      O 1608   1.296   1.792   0.314
  108EMC      C 1609   1.383   1.880   0.371
  108EMC      O 1610   1.354   1.973   0.443
  108EMC      O 1611   1.508   1.845   0.331
  108EMC      C 1612   1.610   1.930   0.384
  108EMC      H 1613   1.144   1.637   0.468
  108EMC      H 1614   1.014   1.756   0.495
  108EMC      H 1615   1.177   1.785   0.558
  108EMC      H 1616   1.099   1.772   0.262
  108EMC      H 1617   1.134   1.921   0.349
  108EMC      H 1618   1.597   2.033   0.349
  108EMC      H 1619   1.706   1.893   0.346
  108EMC      H 1620   1.612   1.925   0.493
  109EMC      C 1621   3.530   1.579   1.395
  109EMC      C 1622   3.524   1.709   1.471
  109EMC      O 1623   3.420   1.792   1.420
  109EMC      C 1624   3.454   1.870   1.314
  109EMC      O 1625   3.563   1.876   1.262
  109EMC      O 1626   3.345   1.942   1.278
  109EMC      C 1627   3.367   2.030   1.168
  109EMC      H 1628   3.433   1.527   1.398
  109EMC      H 1629   3.607   1.512   1.438
  109EMC      H 1630   3.554   1.595   1.290
  109EMC      H 1631   3.501   1.689   1.577
  109EMC      H 1632   3.621   1.761   1.470
  109EMC      H 1633   3.444   2.105   1.192
  109EMC      H 1634   3.273   2.082   1.147
  109EMC      H 1635   3.395   1.973   1.079
  110EMC      C 1636   3.911   1.724   1.720
  110EMC      C 1637   3.841   1.858   1.727
  110EMC      O 1638   3.795   1.898   1.598
  110EMC      C 1639   3.886   1.965   1.522
  110EMC      O 1640   4.000   1.993   1.554
  110EMC      O 1641   3.828   1.995   1.404
  110EMC      C 1642   3.913   2.066   1.313
  110EMC      H 1643   3.845   1.649   1.676
  110EMC      H 1644   3.941   1.691   1.820
  110EMC      H 1645   4.000   1.729   1.657
  110EMC      H 1646   3.752   1.850   1.792
  110EMC      H 1647   3.905   1.935   1.773
  110EMC      H 1648   3.943   2.163   1.356
  110EMC      H 1649   3.856   2.085   1.222
  110EMC      H 1650   4.000   2.006   1.288
  111EMC      C 1651   2.043   2.308   1.539
  111EMC      C 1652   2.145   2.201   1.572
  111EMC      O 1653   2.199   2.221   1.703
  111EMC      C 1654   2.305   2.306   1.710
  111EMC      O 1655   2.356   2.365   1.617
  111EMC      O 1656   2.343   2.314   1.840
  111EMC      C 1657   2.454   2.400   1.862
  111EMC      H 1658   1.964   2.309   1.615
  111EMC      H 1659   1.997   2.289   1.441
  111EMC      H 1660   2.088   2.407   1.538
  111EMC      H 1661   2.097   2.102   1.571
  111EMC      H 1662   2.224   2.197   1.495
  111EMC      H 1663   2.543   2.364   1.807
  111EMC      H 1664   2.477   2.399   1.969
  111EMC      H 1665   2.430   2.502   1.833
  112EMC      C 1666   1.765   3.114   2.145
  112EMC      C 1667   1.800   3.233   2.059
  112EMC      O 1668   1.698   3.333   2.068
  112EMC      C 1669   1.594   3.318   1.982
  112EMC      O 1670   1.580   3.230   1.900
  112EMC      O 1671   1.508   3.421   2.004
  112EMC      C 1672   1.392   3.418   1.920
  112EMC      H 1673   1.748   3.145   2.249
  112EMC      H 1674   1.845   3.039   2.143
  112EMC      H 1675   1.673   3.066   2.112
  112EMC      H 1676   1.893   3.279   2.095
  112EMC      H 1677   1.818   3.203   1.955
  112EMC      H 1678   1.421   3.426   1.814
  112EMC      H 1679   1.330   3.504   1.945
  112EMC      H 1680   1.334   3.327   1.937
  113EMC      C 1681   3.301   2.567   1.998
  113EMC      C 1682   3.284   2.590   1.850
  113EMC      O 1683   3.410   2.614   1.787
  113EMC      C 1684   3.452   2.743   1.788
  113EMC      O 1685   3.393   2.838   1.837
  113EMC      O 1686   3.572   2.748   1.726
  113EMC      C 1687   3.629   2.879   1.719
  113EMC      H 1688   3.371   2.484   2.016
  113EMC      H 1689   3.205   2.543   2.046
  113EMC      H 1690   3.343   2.655   2.047
  113EMC      H 1691   3.241   2.500   1.803
  113EMC      H 1692   3.212   2.672   1.830
  113EMC      H 1693   3.563   2.947   1.663
  113EMC      H 1694   3.724   2.872   1.667
  113EMC      H 1695   3.647   2.918   1.820
  114EMC      C 1696   2.564   3.380   0.916
  114EMC      C 1697   2.454   3.372   0.812
  114EMC      O 1698   2.462   3.483   0.723
  114EMC      C 1699   2.397   3.595   0.764
  114EMC      O 1700   2.334   3.608   0.867
  114EMC      O 1701   2.414   3.690   0.668
  114EMC      C 1702   2.350   3.814   0.698
  114EMC      H 1703   2.662   3.386   0.868
  114EMC      H 1704   2.562   3.291   0.981
  114EMC      H 1705   2.553   3.469   0.978
  114EMC      H 1706   2.467   3.281   0.751
  114EMC      H 1707   2.355   3.364   0.859
  114EMC      H 1708   2.241   3.801   0.707
  114EMC      H 1709   2.369   3.883   0.616
  114EMC      H 1710   2.391   3.858   0.790
  115EMC      C 1711   0.209   2.675   3.445
  115EMC      C 1712   0.262   2.817   3.444
  115EMC      O 1713   0.220   2.886   3.326
  115EMC      C 1714   0.301   2.870   3.218
  115EMC      O 1715   0.403   2.805   3.213
  115EMC      O 1716   0.247   2.941   3.116
  115EMC      C 1717   0.322   2.934   2.995
  115EMC      H 1718   0.100   2.674   3.434
  115EMC      H 1719   0.236   2.624   3.538
  115EMC      H 1720   0.250   2.618   3.361
  115EMC      H 1721   0.220   2.872   3.530
  115EMC      H 1722   0.371   2.820   3.456
  115EMC      H 1723   0.423   2.975   3.009
  115EMC      H 1724   0.271   2.994   2.919
  115EMC      H 1725   0.328   2.831   2.959
  116EMC      C 1726   2.458   2.318   3.562
  116EMC      C 1727   2.320   2.267   3.529
  116EMC      O 1728   2.305   2.130   3.567
  116EMC      C 1729   2.346   2.040   3.474
  116EMC      O 1730   2.392   2.064   3.364
  116EMC      O 1731   2.326   1.916   3.526
  116EMC      C 1732   2.365   1.810   3.438
  116EMC      H 1733   2.480   2.303   3.668
  116EMC      H 1734   2.468   2.425   3.538
  116EMC      H 1735   2.535   2.263   3.506
  116EMC      H 1736   2.245   2.325   3.586
  116EMC      H 1737   2.296   2.283   3.422
  116EMC      H 1738   2.306   1.813   3.345
  116EMC      H 1739   2.344   1.715   3.489
  116EMC      H 1740   2.471   1.815   3.416
  117EMC      C 1741   2.553   3.701   2.101
  117EMC      C 1742   2.539   3.818   2.196
  117EMC      O 1743   2.532   3.773   2.331
  117EMC      C 1744   2.408   3.739   2.375
  117EMC      O 1745   2.305   3.746   2.311
  117EMC      O 1746   2.419   3.698   2.504
  117EMC      C 1747   2.294   3.660   2.563
  117EMC      H 1748   2.640   3.640   2.127
  117EMC      H 1749   2.564   3.737   1.998
  117EMC      H 1750   2.466   3.636   2.106
  117EMC      H 1751   2.628   3.883   2.189
  117EMC      H 1752   2.453   3.881   2.170
  117EMC      H 1753   2.225   3.745   2.565
  117EMC      H 1754   2.314   3.629   2.666
  117EMC      H 1755   2.250   3.576   2.510
  118EMC      C 1756   2.744   2.637   2.821
  118EMC      C 1757   2.853   2.577   2.735
  118EMC      O 1758   2.817   2.445   2.693
  118EMC      C 1759   2.848   2.346   2.780
  118EMC      O 1760   2.903   2.359   2.888
  118EMC      O 1761   2.807   2.228   2.726
  118EMC      C 1762   2.834   2.114   2.808
  118EMC      H 1763   2.649   2.638   2.767
  118EMC      H 1764   2.770   2.741   2.848
  118EMC      H 1765   2.729   2.580   2.912
  118EMC      H 1766   2.867   2.637   2.644
  118EMC      H 1767   2.950   2.577   2.787
  118EMC      H 1768   2.942   2.102   2.824
  118EMC      H 1769   2.797   2.026   2.755
  118EMC      H 1770   2.781   2.122   2.903
  119EMC      C 1771   0.366   2.404   3.033
  119EMC      C 1772   0.379   2.498   3.150
  119EMC      O 1773   0.385   2.425   3.273
  119EMC      C 1774   0.265   2.393   3.328
  119EMC      O 1775   0.156   2.422   3.283
  119EMC      O 1776   0.288   2.324   3.442
  119EMC      C 1777   0.169   2.285   3.511
  119EMC      H 1778   0.449   2.331   3.032
  119EMC      H 1779   0.368   2.460   2.938
  119EMC      H 1780   0.274   2.347   3.038
  119EMC      H 1781   0.473   2.555   3.142
  119EMC      H 1782   0.298   2.572   3.151
  119EMC      H 1783   0.111   2.373   3.542
  119EMC      H 1784   0.199   2.231   3.601
  119EMC      H 1785   0.109   2.219   3.449
  120EMC      C 1786   3.514   0.599   2.074
  120EMC      C 1787   3.656   0.576   2.120
  120EMC      O 1788   3.735   0.693   2.100
  120EMC      C 1789   3.791   0.704   1.976
  120EMC      O 1790   3.780   0.625   1.885
  120EMC      O 1791   3.862   0.819   1.973
  120EMC      C 1792   3.928   0.844   1.849
  120EMC      H 1793   3.470   0.687   2.125
  120EMC      H 1794   3.451   0.512   2.095
  120EMC      H 1795   3.509   0.619   1.967
  120EMC      H 1796   3.657   0.555   2.228
  120EMC      H 1797   3.700   0.488   2.071
  120EMC      H 1798   4.000   0.764   1.826
  120EMC      H 1799   3.982   0.938   1.857
  120EMC      H 1800   3.854   0.853   1.768
  121EMC      C 1801   2.435   0.242   1.637
  121EMC      C 1802   2.394   0.387   1.649
  121EMC      O 1803   2.260   0.405   1.601
  121EMC      C 1804   2.249   0.426   1.467
  121EMC      O 1805   2.340   0.431   1.387
  121EMC      O 1806   2.117   0.441   1.438
  121EMC      C 1807   2.090   0.464   1.300
  121EMC      H 1808   2.364   0.177   1.691
  121EMC      H 1809   2.535   0.227   1.680
  121EMC      H 1810   2.436   0.209   1.534
  121EMC      H 1811   2.394   0.418   1.755
  121EMC      H 1812   2.465   0.453   1.597
  121EMC      H 1813   2.138   0.557   1.266
  121EMC      H 1814   1.982   0.475   1.288
  121EMC      H 1815   2.124   0.379   1.240
  122EMC      C 1816   2.906   1.235   1.330
  122EMC      C 1817   2.778   1.222   1.251
  122EMC      O 1818   2.672   1.293   1.317
  122EMC      C 1819   2.605   1.222   1.412
  122EMC      O 1820   2.628   1.107   1.446
  122EMC      O 1821   2.509   1.303   1.464
  122EMC      C 1822   2.431   1.241   1.566
  122EMC      H 1823   2.932   1.341   1.345
  122EMC      H 1824   2.989   1.187   1.277
  122EMC      H 1825   2.897   1.191   1.428
  122EMC      H 1826   2.790   1.268   1.152
  122EMC      H 1827   2.752   1.117   1.234
  122EMC      H 1828   2.377   1.153   1.526
  122EMC      H 1829   2.357   1.313   1.600
  122EMC      H 1830   2.493   1.213   1.651
  123EMC      C 1831   2.688   3.760   2.569
  123EMC      C 1832   2.646   3.620   2.606
  123EMC      O 1833   2.549   3.623   2.711
  123EMC      C 1834   2.600   3.626   2.837
  123EMC      O 1835   2.718   3.626   2.867
  123EMC      O 1836   2.496   3.629   2.924
  123EMC      C 1837   2.535   3.632   3.061
  123EMC      H 1838   2.601   3.821   2.542
  123EMC      H 1839   2.758   3.758   2.485
  123EMC      H 1840   2.737   3.810   2.653
  123EMC      H 1841   2.597   3.572   2.519
  123EMC      H 1842   2.732   3.557   2.632
  123EMC      H 1843   2.593   3.542   3.088
  123EMC      H 1844   2.444   3.633   3.122
  123EMC      H 1845   2.593   3.722   3.083
  124EMC      C 1846   3.089   3.545   1.042
  124EMC      C 1847   3.122   3.400   1.016
  124EMC      O 1848   3.021   3.314   1.069
  124EMC      C 1849   3.036   3.280   1.199
  124EMC      O 1850   3.127   3.314   1.272
  124EMC      O 1851   2.933   3.200   1.234
  124EMC      C 1852   2.936   3.155   1.369
  124EMC      H 1853   2.990   3.570   1.002
  124EMC      H 1854   3.164   3.611   0.996
  124EMC      H 1855   3.086   3.566   1.149
  124EMC      H 1856   3.126   3.382   0.907
  124EMC      H 1857   3.222   3.373   1.054
  124EMC      H 1858   3.027   3.096   1.388
  124EMC      H 1859   2.849   3.092   1.387
  124EMC      H 1860   2.931   3.240   1.438
  125EMC      C 1861   2.529   3.739   1.012
  125EMC      C 1862   2.566   3.883   1.039
  125EMC      O 1863   2.688   3.917   0.972
  125EMC      C 1864   2.802   3.888   1.039
  125EMC      O 1865   2.810   3.837   1.150
  125EMC      O 1866   2.907   3.927   0.962
  125EMC      C 1867   3.034   3.903   1.021
  125EMC      H 1868   2.521   3.722   0.903
  125EMC      H 1869   2.433   3.714   1.058
  125EMC      H 1870   2.605   3.670   1.049
  125EMC      H 1871   2.488   3.950   1.001
  125EMC      H 1872   2.573   3.902   1.148
  125EMC      H 1873   3.045   3.959   1.115
  125EMC      H 1874   3.111   3.937   0.952
  125EMC      H 1875   3.049   3.796   1.039
  126EMC      C 1876   0.696   2.171   3.070
  126EMC      C 1877   0.773   2.215   2.947
  126EMC      O 1878   0.720   2.338   2.897
  126EMC      C 1879   0.616   2.325   2.810
  126EMC      O 1880   0.566   2.221   2.773
  126EMC      O 1881   0.578   2.449   2.772
  126EMC      C 1882   0.469   2.451   2.680
  126EMC      H 1883   0.697   2.250   3.146
  126EMC      H 1884   0.740   2.080   3.113
  126EMC      H 1885   0.592   2.151   3.046
  126EMC      H 1886   0.878   2.234   2.975
  126EMC      H 1887   0.775   2.137   2.871
  126EMC      H 1888   0.496   2.399   2.587
  126EMC      H 1889   0.447   2.555   2.656
  126EMC      H 1890   0.380   2.406   2.725
  127EMC      C 1891   3.332   1.022   3.024
  127EMC      C 1892   3.222   1.081   2.939
  127EMC      O 1893   3.258   1.213   2.896
  127EMC      C 1894   3.227   1.313   2.982
  127EMC      O 1895   3.172   1.300   3.090
  127EMC      O 1896   3.267   1.430   2.927
  127EMC      C 1897   3.240   1.545   3.007
  127EMC      H 1898   3.427   1.022   2.970
  127EMC      H 1899   3.307   0.919   3.052
  127EMC      H 1900   3.347   1.080   3.115
  127EMC      H 1901   3.209   1.020   2.848
  127EMC      H 1902   3.126   1.081   2.991
  127EMC      H 1903   3.131   1.556   3.024
  127EMC      H 1904   3.275   1.633   2.954
  127EMC      H 1905   3.293   1.538   3.103
  128EMC      C 1906   3.325   2.903   2.256
  128EMC      C 1907   3.195   2.887   2.181
  128EMC      O 1908   3.187   2.981   2.074
  128EMC      C 1909   3.138   3.104   2.107
  128EMC      O 1910   3.101   3.139   2.217
  128EMC      O 1911   3.138   3.180   1.995
  128EMC      C 1912   3.088   3.313   2.016
  128EMC      H 1913   3.411   2.892   2.187
  128EMC      H 1914   3.334   2.826   2.335
  128EMC      H 1915   3.333   3.001   2.302
  128EMC      H 1916   3.189   2.787   2.136
  128EMC      H 1917   3.108   2.896   2.249
  128EMC      H 1918   2.984   3.310   2.050
  128EMC      H 1919   3.092   3.365   1.920
  128EMC      H 1920   3.151   3.367   2.087
  129EMC      C 1921   2.283   2.544   2.169
  129EMC      C 1922   2.185   2.563   2.056
  129EMC      O 1923   2.253   2.604   1.937
  129EMC      C 1924   2.273   2.738   1.925
  129EMC      O 1925   2.239   2.823   2.004
  129EMC      O 1926   2.338   2.759   1.808
  129EMC      C 1927   2.365   2.897   1.781
  129EMC      H 1928   2.361   2.472   2.141
  129EMC      H 1929   2.232   2.507   2.259
  129EMC      H 1930   2.334   2.637   2.194
  129EMC      H 1931   2.135   2.467   2.034
  129EMC      H 1932   2.105   2.634   2.084
  129EMC      H 1933   2.272   2.955   1.774
  129EMC      H 1934   2.417   2.903   1.685
  129EMC      H 1935   2.430   2.938   1.858
  130EMC      C 1936   1.639   1.817   2.346
  130EMC      C 1937   1.632   1.958   2.398
  130EMC      O 1938   1.718   1.975   2.511
  130EMC      C 1939   1.663   1.943   2.631
  130EMC      O 1940   1.550   1.902   2.650
  130EMC      O 1941   1.756   1.964   2.727
  130EMC      C 1942   1.711   1.934   2.859
  130EMC      H 1943   1.743   1.790   2.322
  130EMC      H 1944   1.578   1.805   2.256
  130EMC      H 1945   1.604   1.745   2.421
  130EMC      H 1946   1.667   2.028   2.320
  130EMC      H 1947   1.528   1.988   2.421
  130EMC      H 1948   1.626   1.998   2.887
  130EMC      H 1949   1.794   1.955   2.928
  130EMC      H 1950   1.685   1.829   2.868
  131EMC      C 1951   2.477   0.780   1.285
  131EMC      C 1952   2.402   0.825   1.408
  131EMC      O 1953   2.262   0.800   1.393
  131EMC      C 1954   2.192   0.899   1.331
  131EMC      O 1955   2.237   1.004   1.289
  131EMC      O 1956   2.062   0.861   1.325
  131EMC      C 1957   1.976   0.956   1.262
  131EMC      H 1958   2.456   0.674   1.263
  131EMC      H 1959   2.585   0.793   1.298
  131EMC      H 1960   2.446   0.837   1.197
  131EMC      H 1961   2.435   0.766   1.495
  131EMC      H 1962   2.422   0.930   1.432
  131EMC      H 1963   1.976   1.051   1.318
  131EMC      H 1964   1.875   0.916   1.263
  131EMC      H 1965   2.006   0.972   1.158
  132EMC      C 1966   1.212   2.817   1.510
  132EMC      C 1967   1.076   2.842   1.449
  132EMC      O 1968   1.056   2.760   1.334
  132EMC      C 1969   1.103   2.810   1.217
  132EMC      O 1970   1.159   2.917   1.202
  132EMC      O 1971   1.077   2.720   1.119
  132EMC      C 1972   1.121   2.761   0.990
  132EMC      H 1973   1.224   2.710   1.534
  132EMC      H 1974   1.225   2.875   1.601
  132EMC      H 1975   1.292   2.842   1.440
  132EMC      H 1976   0.997   2.816   1.521
  132EMC      H 1977   1.062   2.949   1.425
  132EMC      H 1978   1.071   2.854   0.959
  132EMC      H 1979   1.094   2.682   0.919
  132EMC      H 1980   1.229   2.773   0.988
  133EMC      C 1981   1.606   3.083   1.672
  133EMC      C 1982   1.692   2.959   1.664
  133EMC      O 1983   1.748   2.928   1.792
  133EMC      C 1984   1.865   2.992   1.820
  133EMC      O 1985   1.924   3.069   1.748
  133EMC      O 1986   1.905   2.952   1.944
  133EMC      C 1987   2.027   3.011   1.987
  133EMC      H 1988   1.528   3.071   1.748
  133EMC      H 1989   1.558   3.103   1.575
  133EMC      H 1990   1.665   3.170   1.700
  133EMC      H 1991   1.630   2.873   1.635
  133EMC      H 1992   1.769   2.969   1.586
  133EMC      H 1993   2.110   2.983   1.919
  133EMC      H 1994   2.050   2.973   2.087
  133EMC      H 1995   2.018   3.120   1.993
  134EMC      C 1996   1.907   1.778   3.245
  134EMC      C 1997   1.804   1.854   3.325
  134EMC      O 1998   1.861   1.975   3.377
  134EMC      C 1999   1.926   1.963   3.495
  134EMC      O 2000   1.939   1.861   3.560
  134EMC      O 2001   1.973   2.085   3.530
  134EMC      C 2002   2.044   2.087   3.654
  134EMC      H 2003   1.947   1.841   3.164
  134EMC      H 2004   1.862   1.688   3.200
  134EMC      H 2005   1.991   1.747   3.306
  134EMC      H 2006   1.720   1.883   3.260
  134EMC      H 2007   1.762   1.792   3.405
  134EMC      H 2008   1.978   2.057   3.737
  134EMC      H 2009   2.077   2.190   3.672
  134EMC      H 2010   2.132   2.023   3.649
  135EMC      C 2011   3.396   1.227   0.670
  135EMC      C 2012   3.333   1.137   0.774
  135EMC      O 2013   3.278   1.214   0.880
  135EMC      C 2014   3.364   1.247   0.980
  135EMC      O 2015   3.482   1.216   0.986
  135EMC      O 2016   3.296   1.320   1.072
  135EMC      C 2017   3.376   1.361   1.183
  135EMC      H 2018   3.323   1.300   0.632
  135EMC      H 2019   3.434   1.168   0.585
  135EMC      H 2020   3.479   1.284   0.711
  135EMC      H 2021   3.250   1.080   0.728
  135EMC      H 2022   3.405   1.062   0.811
  135EMC      H 2023   3.414   1.273   1.238
  135EMC      H 2024   3.312   1.418   1.251
  135EMC      H 2025   3.458   1.425   1.150
  136EMC      C 2026   1.517   1.720   0.614
  136EMC      C 2027   1.506   1.590   0.690
  136EMC      O 2028   1.468   1.483   0.603
  136EMC      C 2029   1.334   1.469   0.584
  136EMC      O 2030   1.247   1.536   0.635
  136EMC      O 2031   1.316   1.365   0.499
  136EMC      C 2032   1.178   1.337   0.471
  136EMC      H 2033   1.588   1.710   0.531
  136EMC      H 2034   1.552   1.801   0.680
  136EMC      H 2035   1.422   1.749   0.572
  136EMC      H 2036   1.604   1.563   0.733
  136EMC      H 2037   1.437   1.599   0.776
  136EMC      H 2038   1.124   1.310   0.562
  136EMC      H 2039   1.174   1.252   0.402
  136EMC      H 2040   1.131   1.423   0.422
  137EMC      C 2041   1.590   3.077   2.657
  137EMC      C 2042   1.486   3.058   2.765
  137EMC      O 2043   1.386   2.965   2.723
  137EMC      C 2044   1.283   3.018   2.652
  137EMC      O 2045   1.269   3.136   2.623
  137EMC      O 2046   1.199   2.918   2.620
  137EMC      C 2047   1.085   2.960   2.545
  137EMC      H 2048   1.635   2.981   2.629
  137EMC      H 2049   1.670   3.144   2.692
  137EMC      H 2050   1.546   3.120   2.567
  137EMC      H 2051   1.534   3.016   2.855
  137EMC      H 2052   1.442   3.154   2.796
  137EMC      H 2053   1.024   3.032   2.603
  137EMC      H 2054   1.023   2.872   2.524
  137EMC      H 2055   1.115   3.003   2.449
  138EMC      C 2056   2.612   3.436   2.298
  138EMC      C 2057   2.533   3.330   2.372
  138EMC      O 2058   2.507   3.372   2.506
  138EMC      C 2059   2.604   3.344   2.596
  138EMC      O 2060   2.710   3.288   2.574
  138EMC      O 2061   2.564   3.390   2.717
  138EMC      C 2062   2.658   3.367   2.823
  138EMC      H 2063   2.558   3.532   2.300
  138EMC      H 2064   2.627   3.407   2.193
  138EMC      H 2065   2.709   3.453   2.344
  138EMC      H 2066   2.436   3.315   2.323
  138EMC      H 2067   2.585   3.233   2.370
  138EMC      H 2068   2.675   3.259   2.837
  138EMC      H 2069   2.615   3.407   2.915
  138EMC      H 2070   2.752   3.419   2.802
  139EMC      C 2071   2.067   2.770   0.439
  139EMC      C 2072   1.919   2.780   0.468
  139EMC      O 2073   1.856   2.873   0.380
  139EMC      C 2074   1.859   3.003   0.421
  139EMC      O 2075   1.908   3.045   0.524
  139EMC      O 2076   1.795   3.077   0.327
  139EMC      C 2077   1.790   3.217   0.358
  139EMC      H 2078   2.084   2.744   0.333
  139EMC      H 2079   2.114   2.694   0.502
  139EMC      H 2080   2.117   2.866   0.456
  139EMC      H 2081   1.871   2.682   0.450
  139EMC      H 2082   1.900   2.804   0.574
  139EMC      H 2083   1.735   3.234   0.451
  139EMC      H 2084   1.738   3.267   0.277
  139EMC      H 2085   1.891   3.258   0.365
  140EMC      C 2086   0.752   2.674   0.780
  140EMC      C 2087   0.674   2.655   0.652
  140EMC      O 2088   0.569   2.751   0.641
  140EMC      C 2089   0.452   2.717   0.701
  140EMC      O 2090   0.430   2.614   0.761
  140EMC      O 2091   0.364   2.819   0.683
  140EMC      C 2092   0.236   2.796   0.741
  140EMC      H 2093   0.791   2.776   0.786
  140EMC      H 2094   0.836   2.603   0.785
  140EMC      H 2095   0.688   2.658   0.867
  140EMC      H 2096   0.741   2.670   0.565
  140EMC      H 2097   0.635   2.552   0.643
  140EMC      H 2098   0.188   2.707   0.696
  140EMC      H 2099   0.173   2.883   0.720
  140EMC      H 2100   0.245   2.784   0.849
  141EMC      C 2101   2.858   0.917   2.046
  141EMC      C 2102   2.710   0.908   2.076
  141EMC      O 2103   2.641   1.022   2.023
  141EMC      C 2104   2.637   1.130   2.105
  141EMC      O 2105   2.685   1.139   2.216
  141EMC      O 2106   2.568   1.228   2.040
  141EMC      C 2107   2.556   1.349   2.115
  141EMC      H 2108   2.874   0.928   1.938
  141EMC      H 2109   2.910   0.827   2.081
  141EMC      H 2110   2.902   1.004   2.094
  141EMC      H 2111   2.667   0.819   2.027
  141EMC      H 2112   2.691   0.896   2.184
  141EMC      H 2113   2.501   1.332   2.209
  141EMC      H 2114   2.500   1.421   2.055
  141EMC      H 2115   2.655   1.392   2.136
  142EMC      C 2116   1.051   2.512   1.615
  142EMC      C 2117   0.993   2.510   1.754
  142EMC      O 2118   0.850   2.502   1.749
  142EMC      C 2119   0.786   2.621   1.739
  142EMC      O 2120   0.838   2.731   1.734
  142EMC      O 2121   0.652   2.596   1.735
  142EMC      C 2122   0.572   2.714   1.725
  142EMC      H 2123   1.017   2.425   1.557
  142EMC      H 2124   1.161   2.512   1.618
  142EMC      H 2125   1.018   2.601   1.560
  142EMC      H 2126   1.028   2.420   1.807
  142EMC      H 2127   1.027   2.596   1.813
  142EMC      H 2128   0.587   2.779   1.812
  142EMC      H 2129   0.467   2.683   1.723
  142EMC      H 2130   0.594   2.767   1.632
  143EMC      C 2131   1.446   3.599   2.249
  143EMC      C 2132   1.550   3.703   2.213
  143EMC      O 2133   1.664   3.691   2.298
  143EMC      C 2134   1.657   3.759   2.415
  143EMC      O 2135   1.564   3.827   2.453
  143EMC      O 2136   1.772   3.737   2.483
  143EMC      C 2137   1.778   3.803   2.610
  143EMC      H 2138   1.490   3.498   2.244
  143EMC      H 2139   1.361   3.604   2.180
  143EMC      H 2140   1.410   3.613   2.351
  143EMC      H 2141   1.585   3.686   2.110
  143EMC      H 2142   1.508   3.804   2.215
  143EMC      H 2143   1.771   3.912   2.597
  143EMC      H 2144   1.874   3.780   2.656
  143EMC      H 2145   1.699   3.767   2.675
  144EMC      C 2146   3.617   0.452   2.603
  144EMC      C 2147   3.566   0.370   2.719
  144EMC      O 2148   3.486   0.261   2.672
  144EMC      C 2149   3.354   0.291   2.653
  144EMC      O 2150   3.301   0.399   2.673
  144EMC      O 2151   3.292   0.179   2.610
  144EMC      C 2152   3.152   0.196   2.586
  144EMC      H 2153   3.672   0.388   2.531
  144EMC      H 2154   3.684   0.531   2.638
  144EMC      H 2155   3.535   0.498   2.548
  144EMC      H 2156   3.652   0.325   2.773
  144EMC      H 2157   3.513   0.432   2.792
  144EMC      H 2158   3.100   0.224   2.678
  144EMC      H 2159   3.112   0.100   2.551
  144EMC      H 2160   3.135   0.270   2.508
  145EMC      C 2161   2.075   3.605   3.400
  145EMC      C 2162   2.023   3.544   3.528
  145EMC      O 2163   2.094   3.423   3.558
  145EMC      C 2164   2.045   3.311   3.500
  145EMC      O 2165   1.948   3.304   3.427
  145EMC      O 2166   2.122   3.207   3.539
  145EMC      C 2167   2.082   3.081   3.485
  145EMC      H 2168   2.183   3.623   3.406
  145EMC      H 2169   2.025   3.701   3.379
  145EMC      H 2170   2.059   3.539   3.315
  145EMC      H 2171   2.040   3.613   3.612
  145EMC      H 2172   1.914   3.527   3.523
  145EMC      H 2173   1.980   3.055   3.518
  145EMC      H 2174   2.150   3.004   3.522
  145EMC      H 2175   2.087   3.082   3.376
  146EMC      C 2176   1.271   2.528   2.364
  146EMC      C 2177   1.214   2.639   2.449
  146EMC      O 2178   1.318   2.724   2.498
  146EMC      C 2179   1.377   2.684   2.613
  146EMC      O 2180   1.349   2.585   2.677
  146EMC      O 2181   1.472   2.775   2.645
  146EMC      C 2182   1.543   2.746   2.765
  146EMC      H 2183   1.331   2.570   2.281
  146EMC      H 2184   1.191   2.466   2.322
  146EMC      H 2185   1.338   2.464   2.422
  146EMC      H 2186   1.146   2.701   2.388
  146EMC      H 2187   1.153   2.599   2.531
  146EMC      H 2188   1.474   2.744   2.851
  146EMC      H 2189   1.616   2.824   2.782
  146EMC      H 2190   1.596   2.650   2.757
  147EMC      C 2191   1.605   1.454   3.294
  147EMC      C 2192   1.630   1.468   3.443
  147EMC      O 2193   1.726   1.571   3.468
  147EMC      C 2194   1.856   1.532   3.464
  147EMC      O 2195   1.896   1.419   3.441
  147EMC      O 2196   1.933   1.640   3.490
  147EMC      C 2197   2.073   1.613   3.488
  147EMC      H 2198   1.573   1.550   3.251
  147EMC      H 2199   1.527   1.379   3.275
  147EMC      H 2200   1.695   1.424   3.242
  147EMC      H 2201   1.537   1.498   3.493
  147EMC      H 2202   1.660   1.372   3.488
  147EMC      H 2203   2.099   1.540   3.566
  147EMC      H 2204   2.126   1.706   3.510
  147EMC      H 2205   2.105   1.578   3.390
  148EMC      C 2206   0.601   1.183   0.935
  148EMC      C 2207   0.563   1.042   0.896
  148EMC      O 2208   0.482   1.042   0.778
  148EMC      C 2209   0.349   1.059   0.799
  148EMC      O 2210   0.294   1.072   0.907
  148EMC      O 2211   0.287   1.057   0.678
  148EMC      C 2212   0.146   1.073   0.685
  148EMC      H 2213   0.652   1.233   0.852
  148EMC      H 2214   0.668   1.182   1.022
  148EMC      H 2215   0.513   1.242   0.960
  148EMC      H 2216   0.654   0.984   0.873
  148EMC      H 2217   0.513   0.989   0.979
  148EMC      H 2218   0.100   0.991   0.742
  148EMC      H 2219   0.106   1.070   0.583
  148EMC      H 2220   0.120   1.169   0.729
  149EMC      C 2221   2.019   2.997   2.407
  149EMC      C 2222   1.924   2.900   2.474
  149EMC      O 2223   1.881   2.800   2.381
  149EMC      C 2224   1.772   2.833   2.306
  149EMC      O 2225   1.710   2.938   2.312
  149EMC      O 2226   1.745   2.729   2.224
  149EMC      C 2227   1.632   2.750   2.139
  149EMC      H 2228   2.104   2.944   2.363
  149EMC      H 2229   2.057   3.070   2.480
  149EMC      H 2230   1.969   3.051   2.326
  149EMC      H 2231   1.976   2.847   2.555
  149EMC      H 2232   1.839   2.951   2.520
  149EMC      H 2233   1.541   2.765   2.199
  149EMC      H 2234   1.618   2.661   2.078
  149EMC      H 2235   1.649   2.835   2.073
  150EMC      C 2236   3.465   0.700   1.566
  150EMC      C 2237   3.337   0.692   1.645
  150EMC      O 2238   3.306   0.555   1.676
  150EMC      C 2239   3.235   0.489   1.580
  150EMC      O 2240   3.197   0.535   1.475
  150EMC      O 2241   3.214   0.363   1.624
  150EMC      C 2242   3.140   0.281   1.533
  150EMC      H 2243   3.547   0.651   1.620
  150EMC      H 2244   3.492   0.805   1.548
  150EMC      H 2245   3.455   0.650   1.470
  150EMC      H 2246   3.349   0.744   1.742
  150EMC      H 2247   3.253   0.742   1.594
  150EMC      H 2248   3.040   0.323   1.516
  150EMC      H 2249   3.129   0.182   1.578
  150EMC      H 2250   3.194   0.270   1.439
  151EMC      C 2251   2.270   3.036   3.173
  151EMC      C 2252   2.156   2.939   3.187
  151EMC      O 2253   2.169   2.832   3.093
  151EMC      C 2254   2.116   2.856   2.970
  151EMC      O 2255   2.060   2.957   2.934
  151EMC      O 2256   2.137   2.746   2.893
  151EMC      C 2257   2.086   2.756   2.761
  151EMC      H 2258   2.367   2.985   3.184
  151EMC      H 2259   2.264   3.115   3.249
  151EMC      H 2260   2.271   3.083   3.074
  151EMC      H 2261   2.158   2.893   3.287
  151EMC      H 2262   2.059   2.989   3.177
  151EMC      H 2263   1.977   2.771   2.762
  151EMC      H 2264   2.108   2.663   2.708
  151EMC      H 2265   2.135   2.838   2.707
  152EMC      C 2266   3.578   1.430   3.155
  152EMC      C 2267   3.693   1.505   3.090
  152EMC      O 2268   3.716   1.456   2.958
  152EMC      C 2269   3.799   1.348   2.950
  152EMC      O 2270   3.854   1.292   3.043
  152EMC      O 2271   3.811   1.315   2.819
  152EMC      C 2272   3.896   1.202   2.796
  152EMC      H 2273   3.488   1.437   3.093
  152EMC      H 2274   3.556   1.472   3.254
  152EMC      H 2275   3.601   1.324   3.166
  152EMC      H 2276   3.667   1.611   3.081
  152EMC      H 2277   3.783   1.500   3.152
  152EMC      H 2278   3.999   1.223   2.830
  152EMC      H 2279   3.899   1.184   2.688
  152EMC      H 2280   3.857   1.113   2.845
  153EMC      C 2281   0.676   2.983   0.586
  153EMC      C 2282   0.745   3.117   0.588
  153EMC      O 2283   0.767   3.164   0.454
  153EMC      C 2284   0.882   3.120   0.396
  153EMC      O 2285   0.965   3.047   0.447
  153EMC      O 2286   0.888   3.173   0.271
  153EMC      C 2287   1.005   3.135   0.198
  153EMC      H 2288   0.582   2.988   0.529
  153EMC      H 2289   0.653   2.950   0.688
  153EMC      H 2290   0.737   2.907   0.538
  153EMC      H 2291   0.680   3.192   0.637
  153EMC      H 2292   0.838   3.113   0.646
  153EMC      H 2293   1.096   3.171   0.249
  153EMC      H 2294   1.000   3.183   0.100
  153EMC      H 2295   1.008   3.027   0.184
  154EMC      C 2296   3.435   0.853   1.005
  154EMC      C 2297   3.573   0.914   0.997
  154EMC      O 2298   3.657   0.838   0.911
  154EMC      C 2299   3.722   0.734   0.971
  154EMC      O 2300   3.714   0.702   1.088
  154EMC      O 2301   3.796   0.672   0.876
  154EMC      C 2302   3.870   0.560   0.925
  154EMC      H 2303   3.391   0.843   0.905
  154EMC      H 2304   3.368   0.915   1.066
  154EMC      H 2305   3.439   0.753   1.049
  154EMC      H 2306   3.566   1.016   0.953
  154EMC      H 2307   3.617   0.927   1.097
  154EMC      H 2308   3.942   0.591   1.003
  154EMC      H 2309   3.927   0.517   0.842
  154EMC      H 2310   3.803   0.483   0.963
  155EMC      C 2311   1.065   2.195   3.787
  155EMC      C 2312   1.101   2.056   3.739
  155EMC      O 2313   0.983   1.983   3.704
  155EMC      C 2314   0.923   1.918   3.807
  155EMC      O 2315   0.961   1.916   3.923
  155EMC      O 2316   0.814   1.854   3.758
  155EMC      C 2317   0.741   1.780   3.856
  155EMC      H 2318   1.005   2.248   3.711
  155EMC      H 2319   1.156   2.254   3.807
  155EMC      H 2320   1.005   2.191   3.878
  155EMC      H 2321   1.162   2.064   3.647
  155EMC      H 2322   1.162   2.003   3.813
  155EMC      H 2323   0.804   1.701   3.900
  155EMC      H 2324   0.656   1.733   3.807
  155EMC      H 2325   0.703   1.847   3.934
  156EMC      C 2326   3.561   2.407   1.073
  156EMC      C 2327   3.505   2.544   1.043
  156EMC      O 2328   3.608   2.631   0.993
  156EMC      C 2329   3.681   2.696   1.087
  156EMC      O 2330   3.666   2.687   1.208
  156EMC      O 2331   3.772   2.772   1.023
  156EMC      C 2332   3.857   2.847   1.111
  156EMC      H 2333   3.609   2.365   0.984
  156EMC      H 2334   3.482   2.339   1.106
  156EMC      H 2335   3.638   2.411   1.151
  156EMC      H 2336   3.428   2.537   0.965
  156EMC      H 2337   3.456   2.587   1.131
  156EMC      H 2338   3.797   2.917   1.172
  156EMC      H 2339   3.926   2.905   1.050
  156EMC      H 2340   3.914   2.780   1.175
  157EMC      C 2341   2.730   1.403   1.603
  157EMC      C 2342   2.752   1.524   1.515
  157EMC      O 2343   2.887   1.530   1.470
  157EMC      C 2344   2.974   1.592   1.554
  157EMC      O 2345   2.946   1.642   1.662
  157EMC      O 2346   3.097   1.589   1.497
  157EMC      C 2347   3.198   1.651   1.576
  157EMC      H 2348   2.759   1.311   1.550
  157EMC      H 2349   2.624   1.395   1.632
  157EMC      H 2350   2.791   1.408   1.693
  157EMC      H 2351   2.688   1.516   1.425
  157EMC      H 2352   2.722   1.616   1.566
  157EMC      H 2353   3.176   1.758   1.591
  157EMC      H 2354   3.293   1.644   1.521
  157EMC      H 2355   3.210   1.601   1.672
  158EMC      C 2356   0.796   3.575   3.025
  158EMC      C 2357   0.913   3.658   2.979
  158EMC      O 2358   0.884   3.722   2.855
  158EMC      C 2359   0.909   3.648   2.744
  158EMC      O 2360   0.954   3.536   2.741
  158EMC      O 2361   0.876   3.723   2.636
  158EMC      C 2362   0.898   3.658   2.511
  158EMC      H 2363   0.705   3.637   3.033
  158EMC      H 2364   0.816   3.530   3.123
  158EMC      H 2365   0.774   3.495   2.955
  158EMC      H 2366   0.933   3.737   3.053
  158EMC      H 2367   1.005   3.597   2.973
  158EMC      H 2368   1.005   3.634   2.498
  158EMC      H 2369   0.869   3.726   2.431
  158EMC      H 2370   0.837   3.568   2.503
  159EMC      C 2371   1.310   1.701   2.898
  159EMC      C 2372   1.374   1.781   2.787
  159EMC      O 2373   1.274   1.832   2.697
  159EMC      C 2374   1.237   1.747   2.598
  159EMC      O 2375   1.281   1.635   2.578
  159EMC      O 2376   1.143   1.810   2.523
  159EMC      C 2377   1.095   1.732   2.413
  159EMC      H 2378   1.235   1.762   2.951
  159EMC      H 2379   1.385   1.667   2.970
  159EMC      H 2380   1.257   1.614   2.859
  159EMC      H 2381   1.426   1.868   2.829
  159EMC      H 2382   1.450   1.721   2.734
  159EMC      H 2383   1.177   1.708   2.343
  159EMC      H 2384   1.021   1.791   2.360
  159EMC      H 2385   1.047   1.640   2.449
  160EMC      C 2386   3.122   2.163   1.344
  160EMC      C 2387   3.114   2.196   1.491
  160EMC      O 2388   3.066   2.330   1.510
  160EMC      C 2389   3.162   2.426   1.507
  160EMC      O 2390   3.281   2.409   1.491
  160EMC      O 2391   3.101   2.546   1.526
  160EMC      C 2392   3.190   2.657   1.525
  160EMC      H 2393   3.025   2.178   1.295
  160EMC      H 2394   3.153   2.058   1.330
  160EMC      H 2395   3.194   2.227   1.293
  160EMC      H 2396   3.041   2.129   1.540
  160EMC      H 2397   3.210   2.180   1.542
  160EMC      H 2398   3.264   2.649   1.607
  160EMC      H 2399   3.132   2.748   1.541
  160EMC      H 2400   3.241   2.665   1.429
  161EMC      C 2401   1.080   0.264   1.776
  161EMC      C 2402   0.990   0.384   1.792
  161EMC      O 2403   0.915   0.407   1.673
  161EMC      C 2404   0.978   0.484   1.579
  161EMC      O 2405   1.089   0.533   1.589
  161EMC      O 2406   0.895   0.496   1.473
  161EMC      C 2407   0.948   0.575   1.366
  161EMC      H 2408   1.022   0.175   1.747
  161EMC      H 2409   1.133   0.242   1.870
  161EMC      H 2410   1.154   0.280   1.698
  161EMC      H 2411   0.917   0.365   1.872
  161EMC      H 2412   1.047   0.473   1.823
  161EMC      H 2413   0.968   0.678   1.400
  161EMC      H 2414   0.873   0.578   1.286
  161EMC      H 2415   1.039   0.529   1.326
  162EMC      C 2416   1.312   1.017   3.248
  162EMC      C 2417   1.379   0.887   3.285
  162EMC      O 2418   1.283   0.795   3.338
  162EMC      C 2419   1.261   0.806   3.472
  162EMC      O 2420   1.314   0.884   3.548
  162EMC      O 2421   1.169   0.712   3.506
  162EMC      C 2422   1.136   0.712   3.645
  162EMC      H 2423   1.229   1.000   3.178
  162EMC      H 2424   1.384   1.086   3.201
  162EMC      H 2425   1.270   1.066   3.335
  162EMC      H 2426   1.421   0.840   3.194
  162EMC      H 2427   1.463   0.903   3.353
  162EMC      H 2428   1.224   0.690   3.706
  162EMC      H 2429   1.061   0.634   3.662
  162EMC      H 2430   1.092   0.808   3.674
  163EMC      C 2431   3.019   3.919   1.538
  163EMC      C 2432   3.075   3.786   1.585
  163EMC      O 2433   3.203   3.762   1.527
  163EMC      C 2434   3.200   3.702   1.405
  163EMC      O 2435   3.101   3.668   1.343
  163EMC      O 2436   3.328   3.686   1.363
  163EMC      C 2437   3.341   3.624   1.235
  163EMC      H 2438   3.090   4.000   1.560
  163EMC      H 2439   2.924   3.941   1.588
  163EMC      H 2440   3.003   3.919   1.431
  163EMC      H 2441   3.090   3.789   1.695
  163EMC      H 2442   3.005   3.704   1.566
  163EMC      H 2443   3.298   3.523   1.237
  163EMC      H 2444   3.447   3.616   1.212
  163EMC      H 2445   3.293   3.685   1.158
  164EMC      C 2446   2.837   0.609   2.355
  164EMC      C 2447   2.729   0.544   2.271
  164EMC      O 2448   2.771   0.415   2.226
  164EMC      C 2449   2.843   0.415   2.111
  164EMC      O 2450   2.873   0.512   2.044
  164EMC      O 2451   2.875   0.286   2.082
  164EMC      C 2452   2.951   0.271   1.962
  164EMC      H 2453   2.864   0.544   2.439
  164EMC      H 2454   2.802   0.705   2.395
  164EMC      H 2455   2.927   0.626   2.297
  164EMC      H 2456   2.639   0.528   2.332
  164EMC      H 2457   2.699   0.608   2.187
  164EMC      H 2458   2.894   0.306   1.875
  164EMC      H 2459   2.972   0.164   1.948
  164EMC      H 2460   3.046   0.323   1.970
  165EMC      C 2461   1.646   2.854   3.114
  165EMC      C 2462   1.770   2.859   3.027
  165EMC      O 2463   1.810   2.727   2.989
  165EMC      C 2464   1.891   2.663   3.078
  165EMC      O 2465   1.931   2.707   3.184
  165EMC      O 2466   1.919   2.540   3.028
  165EMC      C 2467   2.003   2.461   3.112
  165EMC      H 2468   1.565   2.801   3.062
  165EMC      H 2469   1.612   2.956   3.137
  165EMC      H 2470   1.665   2.802   3.207
  165EMC      H 2471   1.748   2.914   2.934
  165EMC      H 2472   1.852   2.913   3.076
  165EMC      H 2473   2.101   2.510   3.125
  165EMC      H 2474   2.020   2.365   3.062
  165EMC      H 2475   1.956   2.443   3.208
  166EMC      C 2476   2.225   3.554   1.625
  166EMC      C 2477   2.184   3.693   1.667
  166EMC      O 2478   2.284   3.788   1.632
  166EMC      C 2479   2.383   3.804   1.724
  166EMC      O 2480   2.393   3.747   1.830
  166EMC      O 2481   2.470   3.897   1.675
  166EMC      C 2482   2.580   3.925   1.762
  166EMC      H 2483   2.247   3.551   1.517
  166EMC      H 2484   2.145   3.481   1.646
  166EMC      H 2485   2.315   3.522   1.677
  166EMC      H 2486   2.092   3.722   1.614
  166EMC      H 2487   2.160   3.697   1.774
  166EMC      H 2488   2.544   3.965   1.858
  166EMC      H 2489   2.642   4.000   1.714
  166EMC      H 2490   2.640   3.835   1.778
  167EMC      C 2491   0.512   2.151   2.206
  167EMC      C 2492   0.571   2.101   2.336
  167EMC      O 2493   0.573   1.958   2.339
  167EMC      C 2494   0.459   1.900   2.384
  167EMC      O 2495   0.358   1.958   2.422
  167EMC      O 2496   0.476   1.766   2.380
  167EMC      C 2497   0.363   1.691   2.426
  167EMC      H 2498   0.567   2.109   2.120
  167EMC      H 2499   0.517   2.261   2.201
  167EMC      H 2500   0.408   2.120   2.195
  167EMC      H 2501   0.676   2.134   2.343
  167EMC      H 2502   0.519   2.143   2.423
  167EMC      H 2503   0.341   1.715   2.531
  167EMC      H 2504   0.387   1.585   2.419
  167EMC      H 2505   0.276   1.711   2.363
  168EMC      C 2506   1.774   1.489   1.834
  168EMC      C 2507   1.852   1.394   1.922
  168EMC      O 2508   1.773   1.280   1.955
  168EMC      C 2509   1.694   1.295   2.065
  168EMC      O 2510   1.685   1.394   2.135
  168EMC      O 2511   1.625   1.179   2.083
  168EMC      C 2512   1.538   1.180   2.196
  168EMC      H 2513   1.737   1.438   1.744
  168EMC      H 2514   1.837   1.574   1.803
  168EMC      H 2515   1.687   1.528   1.886
  168EMC      H 2516   1.940   1.356   1.867
  168EMC      H 2517   1.891   1.444   2.011
  168EMC      H 2518   1.594   1.195   2.289
  168EMC      H 2519   1.488   1.083   2.201
  168EMC      H 2520   1.461   1.257   2.184
  169EMC      C 2521   1.611   3.458   2.506
  169EMC      C 2522   1.759   3.461   2.480
  169EMC      O 2523   1.814   3.329   2.488
  169EMC      C 2524   1.850   3.289   2.613
  169EMC      O 2525   1.841   3.353   2.715
  169EMC      O 2526   1.900   3.163   2.603
  169EMC      C 2527   1.942   3.108   2.727
  169EMC      H 2528   1.560   3.390   2.436
  169EMC      H 2529   1.567   3.558   2.494
  169EMC      H 2530   1.589   3.423   2.607
  169EMC      H 2531   1.779   3.498   2.378
  169EMC      H 2532   1.811   3.531   2.548
  169EMC      H 2533   2.024   3.168   2.771
  169EMC      H 2534   1.981   3.007   2.708
  169EMC      H 2535   1.858   3.100   2.797
  170EMC      C 2536   1.995   1.843   1.962
  170EMC      C 2537   2.028   1.943   1.853
  170EMC      O 2538   2.013   2.077   1.901
  170EMC      C 2539   1.887   2.128   1.890
  170EMC      O 2540   1.790   2.071   1.845
  170EMC      O 2541   1.889   2.254   1.940
  170EMC      C 2542   1.763   2.320   1.934
  170EMC      H 2543   2.056   1.862   2.051
  170EMC      H 2544   2.013   1.741   1.928
  170EMC      H 2545   1.891   1.852   1.993
  170EMC      H 2546   2.134   1.931   1.824
  170EMC      H 2547   1.969   1.925   1.762
  170EMC      H 2548   1.728   2.330   1.830
  170EMC      H 2549   1.776   2.421   1.976
  170EMC      H 2550   1.689   2.267   1.995
  171EMC      C 2551   2.410   3.797   1.347
  171EMC      C 2552   2.432   3.651   1.318
  171EMC      O 2553   2.454   3.578   1.440
  171EMC      C 2554   2.582   3.576   1.484
  171EMC      O 2555   2.678   3.628   1.430
  171EMC      O 2556   2.585   3.504   1.599
  171EMC      C 2557   2.715   3.492   1.657
  171EMC      H 2558   2.326   3.810   1.417
  171EMC      H 2559   2.387   3.852   1.255
  171EMC      H 2560   2.497   3.842   1.394
  171EMC      H 2561   2.342   3.608   1.271
  171EMC      H 2562   2.515   3.636   1.247
  171EMC      H 2563   2.784   3.441   1.588
  171EMC      H 2564   2.706   3.433   1.748
  171EMC      H 2565   2.754   3.591   1.683
  172EMC      C 2566   2.180   2.251   1.055
  172EMC      C 2567   2.067   2.186   1.132
  172EMC      O 2568   2.104   2.055   1.176
  172EMC      C 2569   2.081   1.956   1.086
  172EMC      O 2570   2.032   1.969   0.975
  172EMC      O 2571   2.121   1.839   1.141
  172EMC      C 2572   2.102   1.725   1.057
  172EMC      H 2573   2.272   2.252   1.115
  172EMC      H 2574   2.154   2.354   1.027
  172EMC      H 2575   2.202   2.195   0.964
  172EMC      H 2576   2.046   2.245   1.223
  172EMC      H 2577   1.974   2.185   1.074
  172EMC      H 2578   1.996   1.711   1.034
  172EMC      H 2579   2.138   1.637   1.111
  172EMC      H 2580   2.161   1.735   0.965
  173EMC      C 2581   2.115   2.149   2.174
  173EMC      C 2582   1.993   2.176   2.258
  173EMC      O 2583   2.006   2.114   2.386
  173EMC      C 2584   1.965   1.984   2.392
  173EMC      O 2585   1.920   1.918   2.301
  173EMC      O 2586   1.984   1.941   2.519
  173EMC      C 2587   1.945   1.805   2.541
  173EMC      H 2588   2.206   2.183   2.226
  173EMC      H 2589   2.108   2.202   2.077
  173EMC      H 2590   2.128   2.043   2.154
  173EMC      H 2591   1.983   2.284   2.276
  173EMC      H 2592   1.901   2.144   2.207
  173EMC      H 2593   1.838   1.791   2.521
  173EMC      H 2594   1.964   1.780   2.645
  173EMC      H 2595   2.005   1.738   2.478
  174EMC      C 2596   2.476   2.181   1.304
  174EMC      C 2597   2.508   2.100   1.181
  174EMC      O 2598   2.575   1.979   1.216
  174EMC      C 2599   2.710   1.988   1.230
  174EMC      O 2600   2.777   2.088   1.214
  174EMC      O 2601   2.757   1.866   1.264
  174EMC      C 2602   2.898   1.861   1.281
  174EMC      H 2603   2.416   2.122   1.374
  174EMC      H 2604   2.419   2.272   1.277
  174EMC      H 2605   2.566   2.212   1.356
  174EMC      H 2606   2.415   2.072   1.129
  174EMC      H 2607   2.567   2.159   1.108
  174EMC      H 2608   2.950   1.887   1.187
  174EMC      H 2609   2.926   1.759   1.308
  174EMC      H 2610   2.930   1.927   1.362
  175EMC      C 2611   3.746   0.679   2.875
  175EMC      C 2612   3.839   0.720   2.987
  175EMC      O 2613   3.764   0.774   3.096
  175EMC      C 2614   3.736   0.907   3.088
  175EMC      O 2615   3.769   0.982   2.998
  175EMC      O 2616   3.665   0.942   3.198
  175EMC      C 2617   3.630   1.080   3.203
  175EMC      H 2618   3.671   0.608   2.911
  175EMC      H 2619   3.803   0.632   2.793
  175EMC      H 2620   3.692   0.765   2.834
  175EMC      H 2621   3.892   0.632   3.025
  175EMC      H 2622   3.916   0.790   2.952
  175EMC      H 2623   3.720   1.143   3.205
  175EMC      H 2624   3.574   1.097   3.295
  175EMC      H 2625   3.566   1.106   3.119
  176EMC      C 2626   1.678   3.785   1.214
  176EMC      C 2627   1.720   3.765   1.070
  176EMC      O 2628   1.648   3.657   1.011
  176EMC      C 2629   1.703   3.534   1.030
  176EMC      O 2630   1.806   3.509   1.090
  176EMC      O 2631   1.624   3.443   0.968
  176EMC      C 2632   1.670   3.308   0.979
  176EMC      H 2633   1.569   3.800   1.221
  176EMC      H 2634   1.729   3.872   1.258
  176EMC      H 2635   1.702   3.697   1.274
  176EMC      H 2636   1.695   3.856   1.012
  176EMC      H 2637   1.829   3.752   1.061
  176EMC      H 2638   1.769   3.297   0.932
  176EMC      H 2639   1.600   3.244   0.927
  176EMC      H 2640   1.674   3.277   1.084
  177EMC      C 2641   0.776   3.581   1.270
  177EMC      C 2642   0.635   3.531   1.296
  177EMC      O 2643   0.606   3.533   1.435
  177EMC      C 2644   0.643   3.422   1.504
  177EMC      O 2645   0.697   3.323   1.457
  177EMC      O 2646   0.609   3.439   1.634
  177EMC      C 2647   0.642   3.329   1.718
  177EMC      H 2648   0.790   3.681   1.313
  177EMC      H 2649   0.796   3.585   1.162
  177EMC      H 2650   0.849   3.516   1.316
  177EMC      H 2651   0.563   3.599   1.247
  177EMC      H 2652   0.619   3.432   1.252
  177EMC      H 2653   0.589   3.238   1.686
  177EMC      H 2654   0.611   3.353   1.820
  177EMC      H 2655   0.750   3.312   1.718
  178EMC      C 2656   3.255   3.632   0.245
  178EMC      C 2657   3.358   3.547   0.175
  178EMC      O 2658   3.296   3.438   0.107
  178EMC      C 2659   3.276   3.327   0.183
  178EMC      O 2660   3.305   3.313   0.300
  178EMC      O 2661   3.216   3.234   0.104
  178EMC      C 2662   3.189   3.110   0.171
  178EMC      H 2663   3.179   3.667   0.174
  178EMC      H 2664   3.302   3.720   0.292
  178EMC      H 2665   3.202   3.575   0.322
  178EMC      H 2666   3.410   3.607   0.099
  178EMC      H 2667   3.436   3.513   0.245
  178EMC      H 2668   3.282   3.064   0.206
  178EMC      H 2669   3.142   3.043   0.099
  178EMC      H 2670   3.120   3.126   0.254
  179EMC      C 2671   3.366   2.975   2.628
  179EMC      C 2672   3.444   3.084   2.697
  179EMC      O 2673   3.504   3.035   2.818
  179EMC      C 2674   3.424   3.041   2.928
  179EMC      O 2675   3.310   3.083   2.933
  179EMC      O 2676   3.495   2.991   3.033
  179EMC      C 2677   3.423   2.991   3.156
  179EMC      H 2678   3.430   2.888   2.609
  179EMC      H 2679   3.325   3.010   2.533
  179EMC      H 2680   3.283   2.940   2.690
  179EMC      H 2681   3.527   3.118   2.632
  179EMC      H 2682   3.381   3.173   2.716
  179EMC      H 2683   3.396   3.094   3.185
  179EMC      H 2684   3.489   2.950   3.233
  179EMC      H 2685   3.334   2.928   3.149
  180EMC      C 2686   1.375   3.932   0.851
  180EMC      C 2687   1.357   3.796   0.916
  180EMC      O 2688   1.471   3.714   0.893
  180EMC      C 2689   1.470   3.644   0.777
  180EMC      O 2690   1.383   3.645   0.693
  180EMC      O 2691   1.585   3.572   0.771
  180EMC      C 2692   1.598   3.493   0.653
  180EMC      H 2693   1.466   3.980   0.888
  180EMC      H 2694   1.289   3.997   0.874
  180EMC      H 2695   1.384   3.923   0.743
  180EMC      H 2696   1.347   3.808   1.025
  180EMC      H 2697   1.264   3.748   0.882
  180EMC      H 2698   1.517   3.419   0.647
  180EMC      H 2699   1.693   3.439   0.658
  180EMC      H 2700   1.599   3.556   0.564
  181EMC      C 2701   1.958   3.515   0.728
  181EMC      C 2702   2.007   3.400   0.644
  181EMC      O 2703   1.901   3.307   0.620
  181EMC      C 2704   1.884   3.212   0.717
  181EMC      O 2705   1.949   3.200   0.818
  181EMC      O 2706   1.780   3.133   0.679
  181EMC      C 2707   1.751   3.028   0.771
  181EMC      H 2708   1.872   3.564   0.681
  181EMC      H 2709   2.038   3.590   0.742
  181EMC      H 2710   1.925   3.482   0.827
  181EMC      H 2711   2.040   3.437   0.546
  181EMC      H 2712   2.094   3.351   0.690
  181EMC      H 2713   1.837   2.961   0.782
  181EMC      H 2714   1.667   2.971   0.732
  181EMC      H 2715   1.722   3.070   0.868
  182EMC      C 2716   0.212   3.538   1.854
  182EMC      C 2717   0.212   3.579   2.000
  182EMC      O 2718   0.281   3.703   2.017
  182EMC      C 2719   0.415   3.692   2.033
  182EMC      O 2720   0.480   3.590   2.035
  182EMC      O 2721   0.465   3.818   2.048
  182EMC      C 2722   0.607   3.822   2.067
  182EMC      H 2723   0.168   3.617   1.792
  182EMC      H 2724   0.153   3.446   1.840
  182EMC      H 2725   0.313   3.521   1.818
  182EMC      H 2726   0.108   3.595   2.034
  182EMC      H 2727   0.253   3.500   2.064
  182EMC      H 2728   0.635   3.768   2.158
  182EMC      H 2729   0.636   3.927   2.078
  182EMC      H 2730   0.658   3.781   1.980
  183EMC      C 2731   1.722   0.944   2.711
  183EMC      C 2732   1.596   0.978   2.636
  183EMC      O 2733   1.574   1.119   2.636
  183EMC      C 2734   1.506   1.167   2.744
  183EMC      O 2735   1.464   1.101   2.837
  183EMC      O 2736   1.493   1.301   2.729
  183EMC      C 2737   1.423   1.365   2.836
  183EMC      H 2738   1.808   0.998   2.670
  183EMC      H 2739   1.743   0.836   2.706
  183EMC      H 2740   1.715   0.972   2.816
  183EMC      H 2741   1.607   0.948   2.530
  183EMC      H 2742   1.509   0.923   2.675
  183EMC      H 2743   1.320   1.326   2.844
  183EMC      H 2744   1.419   1.471   2.815
  183EMC      H 2745   1.477   1.351   2.931
  184EMC      C 2746   3.702   1.704   3.383
  184EMC      C 2747   3.851   1.687   3.400
  184EMC      O 2748   3.898   1.575   3.325
  184EMC      C 2749   3.890   1.455   3.390
  184EMC      O 2750   3.849   1.437   3.502
  184EMC      O 2751   3.938   1.360   3.306
  184EMC      C 2752   3.936   1.228   3.361
  184EMC      H 2753   3.676   1.713   3.276
  184EMC      H 2754   3.666   1.794   3.435
  184EMC      H 2755   3.647   1.618   3.422
  184EMC      H 2756   3.903   1.776   3.360
  184EMC      H 2757   3.879   1.680   3.506
  184EMC      H 2758   4.000   1.223   3.451
  184EMC      H 2759   3.977   1.159   3.287
  184EMC      H 2760   3.834   1.197   3.385
  185EMC      C 2761   1.142   0.936   1.880
  185EMC      C 2762   1.260   1.023   1.917
  185EMC      O 2763   1.358   0.949   1.990
  185EMC      C 2764   1.337   0.943   2.124
  185EMC      O 2765   1.246   0.994   2.186
  185EMC      O 2766   1.437   0.869   2.178
  185EMC      C 2767   1.429   0.854   2.320
  185EMC      H 2768   1.176   0.848   1.824
  185EMC      H 2769   1.070   0.991   1.818
  185EMC      H 2770   1.091   0.899   1.969
  185EMC      H 2771   1.310   1.059   1.825
  185EMC      H 2772   1.228   1.113   1.972
  185EMC      H 2773   1.434   0.952   2.370
  185EMC      H 2774   1.513   0.794   2.353
  185EMC      H 2775   1.336   0.803   2.348
  186EMC      C 2776   1.645   2.229   0.175
  186EMC      C 2777   1.713   2.287   0.297
  186EMC      O 2778   1.631   2.386   0.359
  186EMC      C 2779   1.644   2.512   0.308
  186EMC      O 2780   1.718   2.546   0.219
  186EMC      O 2781   1.559   2.593   0.377
  186EMC      C 2782   1.563   2.729   0.334
  186EMC      H 2783   1.547   2.189   0.202
  186EMC      H 2784   1.706   2.149   0.132
  186EMC      H 2785   1.629   2.305   0.099
  186EMC      H 2786   1.729   2.208   0.372
  186EMC      H 2787   1.813   2.326   0.273
  186EMC      H 2788   1.663   2.772   0.349
  186EMC      H 2789   1.492   2.785   0.395
  186EMC      H 2790   1.532   2.737   0.230
  187EMC      C 2791   3.188   0.263   0.654
  187EMC      C 2792   3.086   0.258   0.543
  187EMC      O 2793   3.001   0.373   0.548
  187EMC      C 2794   2.893   0.361   0.629
  187EMC      O 2795   2.863   0.265   0.697
  187EMC      O 2796   2.823   0.477   0.622
  187EMC      C 2797   2.706   0.479   0.704
  187EMC      H 2798   3.246   0.357   0.649
  187EMC      H 2799   3.258   0.179   0.647
  187EMC      H 2800   3.141   0.261   0.752
  187EMC      H 2801   3.137   0.260   0.445
  187EMC      H 2802   3.029   0.164   0.546
  187EMC      H 2803   2.635   0.401   0.673
  187EMC      H 2804   2.657   0.576   0.691
  187EMC      H 2805   2.732   0.468   0.809
  188EMC      C 2806   2.154   3.374   2.977
  188EMC      C 2807   2.289   3.380   2.909
  188EMC      O 2808   2.362   3.259   2.932
  188EMC      C 2809   2.435   3.257   3.047
  188EMC      O 2810   2.443   3.346   3.129
  188EMC      O 2811   2.497   3.137   3.054
  188EMC      C 2812   2.578   3.120   3.170
  188EMC      H 2813   2.097   3.286   2.944
  188EMC      H 2814   2.095   3.464   2.955
  188EMC      H 2815   2.164   3.366   3.085
  188EMC      H 2816   2.275   3.389   2.800
  188EMC      H 2817   2.346   3.469   2.941
  188EMC      H 2818   2.659   3.195   3.173
  188EMC      H 2819   2.624   3.021   3.166
  188EMC      H 2820   2.517   3.126   3.260
  189EMC      C 2821   2.117   0.914   1.842
  189EMC      C 2822   2.164   0.950   1.703
  189EMC      O 2823   2.286   0.883   1.672
  189EMC      C 2824   2.400   0.946   1.713
  189EMC      O 2825   2.406   1.052   1.772
  189EMC      O 2826   2.505   0.869   1.677
  189EMC      C 2827   2.632   0.923   1.713
  189EMC      H 2828   2.106   0.805   1.851
  189EMC      H 2829   2.020   0.961   1.864
  189EMC      H 2830   2.188   0.945   1.918
  189EMC      H 2831   2.090   0.918   1.629
  189EMC      H 2832   2.174   1.059   1.692
  189EMC      H 2833   2.648   1.021   1.665
  189EMC      H 2834   2.710   0.855   1.679
  189EMC      H 2835   2.640   0.933   1.822
  190EMC      C 2836   2.456   2.779   2.950
  190EMC      C 2837   2.449   2.840   2.812
  190EMC      O 2838   2.579   2.846   2.753
  190EMC      C 2839   2.652   2.956   2.784
  190EMC      O 2840   2.617   3.048   2.856
  190EMC      O 2841   2.772   2.945   2.721
  190EMC      C 2842   2.860   3.056   2.745
  190EMC      H 2843   2.502   2.679   2.946
  190EMC      H 2844   2.355   2.769   2.993
  190EMC      H 2845   2.516   2.839   3.018
  190EMC      H 2846   2.386   2.778   2.747
  190EMC      H 2847   2.401   2.939   2.815
  190EMC      H 2848   2.815   3.149   2.708
  190EMC      H 2849   2.952   3.038   2.689
  190EMC      H 2850   2.884   3.063   2.851
  191EMC      C 2851   0.385   2.165   1.588
  191EMC      C 2852   0.529   2.145   1.628
  191EMC      O 2853   0.593   2.271   1.652
  191EMC      C 2854   0.646   2.331   1.541
  191EMC      O 2855   0.644   2.287   1.428
  191EMC      O 2856   0.701   2.448   1.580
  191EMC      C 2857   0.761   2.522   1.474
  191EMC      H 2858   0.331   2.223   1.664
  191EMC      H 2859   0.334   2.068   1.576
  191EMC      H 2860   0.377   2.220   1.494
  191EMC      H 2861   0.534   2.089   1.723
  191EMC      H 2862   0.584   2.085   1.554
  191EMC      H 2863   0.843   2.464   1.428
  191EMC      H 2864   0.803   2.614   1.516
  191EMC      H 2865   0.687   2.549   1.399
  192EMC      C 2866   0.275   3.076   0.260
  192EMC      C 2867   0.394   3.035   0.343
  192EMC      O 2868   0.448   3.148   0.413
  192EMC      C 2869   0.538   3.222   0.344
  192EMC      O 2870   0.576   3.201   0.230
  192EMC      O 2871   0.578   3.324   0.424
  192EMC      C 2872   0.673   3.411   0.363
  192EMC      H 2873   0.198   3.123   0.324
  192EMC      H 2874   0.230   2.988   0.211
  192EMC      H 2875   0.302   3.148   0.184
  192EMC      H 2876   0.364   2.961   0.419
  192EMC      H 2877   0.471   2.986   0.281
  192EMC      H 2878   0.765   3.356   0.337
  192EMC      H 2879   0.699   3.489   0.435
  192EMC      H 2880   0.631   3.459   0.274
  193EMC      C 2881   2.813   3.209   0.663
  193EMC      C 2882   2.901   3.086   0.661
  193EMC      O 2883   2.877   3.009   0.543
  193EMC      C 2884   2.774   2.919   0.553
  193EMC      O 2885   2.704   2.900   0.650
  193EMC      O 2886   2.765   2.855   0.434
  193EMC      C 2887   2.661   2.757   0.430
  193EMC      H 2888   2.828   3.269   0.572
  193EMC      H 2889   2.836   3.272   0.750
  193EMC      H 2890   2.708   3.183   0.666
  193EMC      H 2891   3.007   3.116   0.658
  193EMC      H 2892   2.888   3.026   0.753
  193EMC      H 2893   2.678   2.678   0.504
  193EMC      H 2894   2.661   2.711   0.330
  193EMC      H 2895   2.563   2.804   0.445
  194EMC      C 2896   3.497   1.361   2.066
  194EMC      C 2897   3.412   1.248   2.012
  194EMC      O 2898   3.282   1.295   1.974
  194EMC      C 2899   3.191   1.298   2.075
  194EMC      O 2900   3.209   1.265   2.190
  194EMC      O 2901   3.074   1.345   2.023
  194EMC      C 2902   2.968   1.354   2.118
  194EMC      H 2903   3.503   1.443   1.992
  194EMC      H 2904   3.598   1.326   2.089
  194EMC      H 2905   3.453   1.403   2.156
  194EMC      H 2906   3.459   1.207   1.920
  194EMC      H 2907   3.406   1.165   2.083
  194EMC      H 2908   2.944   1.254   2.159
  194EMC      H 2909   2.880   1.392   2.067
  194EMC      H 2910   2.994   1.422   2.199
  195EMC      C 2911   2.830   1.059   3.500
  195EMC      C 2912   2.892   1.190   3.541
  195EMC      O 2913   3.016   1.169   3.608
  195EMC      C 2914   3.007   1.147   3.742
  195EMC      O 2915   2.905   1.144   3.808
  195EMC      O 2916   3.132   1.128   3.790
  195EMC      C 2917   3.138   1.104   3.931
  195EMC      H 2918   2.900   1.001   3.437
  195EMC      H 2919   2.738   1.075   3.443
  195EMC      H 2920   2.807   0.997   3.586
  195EMC      H 2921   2.914   1.251   3.451
  195EMC      H 2922   2.823   1.250   3.602
  195EMC      H 2923   3.097   1.189   3.986
  195EMC      H 2924   3.242   1.091   3.959
  195EMC      H 2925   3.083   1.012   3.956
  196EMC      C 2926   3.244   2.864   3.831
  196EMC      C 2927   3.332   2.933   3.729
  196EMC      O 2928   3.428   2.842   3.676
  196EMC      C 2929   3.543   2.830   3.747
  196EMC      O 2930   3.570   2.889   3.850
  196EMC      O 2931   3.623   2.740   3.684
  196EMC      C 2932   3.748   2.718   3.749
  196EMC      H 2933   3.195   2.776   3.786
  196EMC      H 2934   3.166   2.932   3.867
  196EMC      H 2935   3.302   2.829   3.916
  196EMC      H 2936   3.271   2.968   3.644
  196EMC      H 2937   3.380   3.022   3.772
  196EMC      H 2938   3.807   2.811   3.753
  196EMC      H 2939   3.804   2.645   3.690
  196EMC      H 2940   3.733   2.677   3.849
  197EMC      C 2941   1.048   0.300   2.981
  197EMC      C 2942   1.197   0.280   2.965
  197EMC      O 2943   1.241   0.324   2.837
  197EMC      C 2944   1.231   0.231   2.738
  197EMC      O 2945   1.190   0.117   2.749
  197EMC      O 2946   1.276   0.288   2.623
  197EMC      C 2947   1.272   0.202   2.510
  197EMC      H 2948   1.021   0.405   2.963
  197EMC      H 2949   1.015   0.272   3.082
  197EMC      H 2950   0.992   0.240   2.909
  197EMC      H 2951   1.250   0.341   3.040
  197EMC      H 2952   1.225   0.175   2.985
  197EMC      H 2953   1.337   0.114   2.526
  197EMC      H 2954   1.310   0.257   2.423
  197EMC      H 2955   1.170   0.171   2.488
  198EMC      C 2956   2.400   3.051   0.987
  198EMC      C 2957   2.465   3.049   1.123
  198EMC      O 2958   2.481   2.915   1.170
  198EMC      C 2959   2.374   2.864   1.235
  198EMC      O 2960   2.269   2.921   1.257
  198EMC      O 2961   2.404   2.737   1.272
  198EMC      C 2962   2.300   2.670   1.343
  198EMC      H 2963   2.457   2.990   0.916
  198EMC      H 2964   2.394   3.154   0.948
  198EMC      H 2965   2.300   3.009   0.991
  198EMC      H 2966   2.567   3.093   1.116
  198EMC      H 2967   2.410   3.111   1.195
  198EMC      H 2968   2.276   2.723   1.437
  198EMC      H 2969   2.334   2.570   1.368
  198EMC      H 2970   2.211   2.661   1.281
  199EMC      C 2971   2.816   1.119   2.948
  199EMC      C 2972   2.854   1.169   2.810
  199EMC      O 2973   2.946   1.278   2.820
  199EMC      C 2974   2.889   1.401   2.834
  199EMC      O 2975   2.770   1.425   2.839
  199EMC      O 2976   2.988   1.492   2.842
  199EMC      C 2977   2.943   1.627   2.857
  199EMC      H 2978   2.906   1.091   3.004
  199EMC      H 2979   2.751   1.031   2.940
  199EMC      H 2980   2.765   1.196   3.005
  199EMC      H 2981   2.905   1.089   2.754
  199EMC      H 2982   2.765   1.195   2.751
  199EMC      H 2983   2.882   1.657   2.770
  199EMC      H 2984   3.030   1.692   2.862
  199EMC      H 2985   2.886   1.638   2.949
  200EMC      C 2986   0.831   0.255   1.195
  200EMC      C 2987   0.707   0.335   1.228
  200EMC      O 2988   0.700   0.362   1.368
  200EMC      C 2989   0.642   0.265   1.443
  200EMC      O 2990   0.596   0.160   1.403
  200EMC      O 2991   0.644   0.306   1.572
  200EMC      C 2992   0.585   0.213   1.664
  200EMC      H 2993   0.921   0.308   1.230
  200EMC      H 2994   0.840   0.239   1.087
  200EMC      H 2995   0.830   0.158   1.244
  200EMC      H 2996   0.710   0.432   1.176
  200EMC      H 2997   0.616   0.284   1.192
  200EMC      H 2998   0.479   0.197   1.640
  200EMC      H 2999   0.592   0.256   1.764
  200EMC      H 3000   0.640   0.119   1.663
  201EMC      C 3001   1.785   1.387   1.138
  201EMC      C 3002   1.817   1.319   1.269
  201EMC      O 3003   1.922   1.388   1.337
  201EMC      C 3004   2.048   1.351   1.302
  201EMC      O 3005   2.078   1.265   1.221
  201EMC      O 3006   2.135   1.425   1.375
  201EMC      C 3007   2.272   1.396   1.348
  201EMC      H 3008   1.760   1.492   1.154
  201EMC      H 3009   1.700   1.337   1.089
  201EMC      H 3010   1.870   1.384   1.070
  201EMC      H 3011   1.729   1.323   1.335
  201EMC      H 3012   1.841   1.213   1.255
  201EMC      H 3013   2.295   1.291   1.374
  201EMC      H 3014   2.334   1.460   1.412
  201EMC      H 3015   2.297   1.416   1.244
  202EMC      C 3016   0.170   1.820   1.868
  202EMC      C 3017   0.200   1.931   1.769
  202EMC      O 3018   0.251   1.877   1.647
  202EMC      C 3019   0.385   1.856   1.644
  202EMC      O 3020   0.464   1.879   1.735
  202EMC      O 3021   0.417   1.805   1.523
  202EMC      C 3022   0.556   1.778   1.506
  202EMC      H 3023   0.100   1.747   1.823
  202EMC      H 3024   0.125   1.861   1.959
  202EMC      H 3025   0.260   1.765   1.895
  202EMC      H 3026   0.107   1.985   1.745
  202EMC      H 3027   0.268   2.005   1.813
  202EMC      H 3028   0.615   1.871   1.515
  202EMC      H 3029   0.571   1.738   1.405
  202EMC      H 3030   0.590   1.704   1.578
  203EMC      C 3031   1.893   1.908   0.617
  203EMC      C 3032   2.007   1.809   0.609
  203EMC      O 3033   1.957   1.676   0.596
  203EMC      C 3034   1.928   1.613   0.713
  203EMC      O 3035   1.942   1.658   0.824
  203EMC      O 3036   1.882   1.489   0.683
  203EMC      C 3037   1.848   1.410   0.797
  203EMC      H 3038   1.827   1.898   0.530
  203EMC      H 3039   1.932   2.011   0.621
  203EMC      H 3040   1.832   1.890   0.705
  203EMC      H 3041   2.068   1.829   0.519
  203EMC      H 3042   2.075   1.818   0.695
  203EMC      H 3043   1.936   1.394   0.861
  203EMC      H 3044   1.813   1.313   0.762
  203EMC      H 3045   1.768   1.458   0.854
  204EMC      C 3046   3.345   2.137   0.765
  204EMC      C 3047   3.350   2.282   0.724
  204EMC      O 3048   3.239   2.354   0.779
  204EMC      C 3049   3.126   2.351   0.704
  204EMC      O 3050   3.111   2.295   0.598
  204EMC      O 3051   3.031   2.423   0.770
  204EMC      C 3052   2.905   2.429   0.702
  204EMC      H 3053   3.341   2.128   0.875
  204EMC      H 3054   3.433   2.083   0.728
  204EMC      H 3055   3.256   2.088   0.726
  204EMC      H 3056   3.441   2.329   0.765
  204EMC      H 3057   3.355   2.293   0.615
  204EMC      H 3058   2.916   2.477   0.604
  204EMC      H 3059   2.837   2.489   0.763
  204EMC      H 3060   2.863   2.329   0.691
  205EMC      C 3061   1.729   2.317   3.436
  205EMC      C 3062   1.669   2.404   3.544
  205EMC      O 3063   1.541   2.354   3.584
  205EMC      C 3064   1.436   2.398   3.509
  205EMC      O 3065   1.442   2.474   3.415
  205EMC      O 3066   1.323   2.342   3.559
  205EMC      C 3067   1.204   2.379   3.490
  205EMC      H 3068   1.735   2.212   3.469
  205EMC      H 3069   1.830   2.351   3.410
  205EMC      H 3070   1.668   2.318   3.346
  205EMC      H 3071   1.733   2.401   3.634
  205EMC      H 3072   1.664   2.509   3.513
  205EMC      H 3073   1.188   2.488   3.497
  205EMC      H 3074   1.120   2.329   3.538
  205EMC      H 3075   1.209   2.348   3.386
  206EMC      C 3076   3.291   1.511   3.558
  206EMC      C 3077   3.276   1.456   3.418
  206EMC      O 3078   3.282   1.561   3.321
  206EMC      C 3079   3.163   1.622   3.295
  206EMC      O 3080   3.056   1.596   3.346
  206EMC      O 3081   3.186   1.719   3.203
  206EMC      C 3082   3.069   1.792   3.165
  206EMC      H 3083   3.384   1.569   3.567
  206EMC      H 3084   3.293   1.430   3.632
  206EMC      H 3085   3.209   1.579   3.583
  206EMC      H 3086   3.359   1.387   3.396
  206EMC      H 3087   3.184   1.396   3.408
  206EMC      H 3088   2.994   1.725   3.120
  206EMC      H 3089   3.098   1.866   3.091
  206EMC      H 3090   3.027   1.844   3.252
  207EMC      C 3091   2.624   1.417   3.401
  207EMC      C 3092   2.530   1.527   3.445
  207EMC      O 3093   2.485   1.504   3.579
  207EMC      C 3094   2.376   1.424   3.591
  207EMC      O 3095   2.314   1.373   3.500
  207EMC      O 3096   2.347   1.413   3.723
  207EMC      C 3097   2.233   1.331   3.750
  207EMC      H 3098   2.708   1.408   3.470
  207EMC      H 3099   2.663   1.437   3.300
  207EMC      H 3100   2.574   1.320   3.399
  207EMC      H 3101   2.583   1.623   3.445
  207EMC      H 3102   2.446   1.538   3.375
  207EMC      H 3103   2.143   1.374   3.704
  207EMC      H 3104   2.219   1.329   3.858
  207EMC      H 3105   2.250   1.229   3.715
  208EMC      C 3106   1.937   3.927   2.114
  208EMC      C 3107   1.826   3.839   2.168
  208EMC      O 3108   1.868   3.775   2.289
  208EMC      C 3109   1.935   3.658   2.272
  208EMC      O 3110   1.961   3.604   2.166
  208EMC      O 3111   1.966   3.611   2.395
  208EMC      C 3112   2.038   3.487   2.393
  208EMC      H 3113   1.968   4.000   2.189
  208EMC      H 3114   1.903   3.981   2.024
  208EMC      H 3115   2.025   3.869   2.087
  208EMC      H 3116   1.738   3.901   2.193
  208EMC      H 3117   1.792   3.766   2.092
  208EMC      H 3118   1.977   3.408   2.346
  208EMC      H 3119   2.058   3.458   2.496
  208EMC      H 3120   2.133   3.498   2.341
  209EMC      C 3121   3.478   1.473   2.424
  209EMC      C 3122   3.616   1.499   2.370
  209EMC      O 3123   3.716   1.459   2.464
  209EMC      C 3124   3.749   1.553   2.557
  209EMC      O 3125   3.703   1.665   2.565
  209EMC      O 3126   3.843   1.500   2.638
  209EMC      C 3127   3.888   1.589   2.741
  209EMC      H 3128   3.466   1.367   2.452
  209EMC      H 3129   3.401   1.497   2.349
  209EMC      H 3130   3.458   1.532   2.513
  209EMC      H 3131   3.632   1.438   2.279
  209EMC      H 3132   3.629   1.604   2.339
  209EMC      H 3133   3.934   1.679   2.697
  209EMC      H 3134   3.963   1.537   2.800
  209EMC      H 3135   3.805   1.617   2.806
  210EMC      C 3136   3.566   3.397   3.606
  210EMC      C 3137   3.545   3.456   3.469
  210EMC      O 3138   3.539   3.353   3.370
  210EMC      C 3139   3.659   3.314   3.320
  210EMC      O 3140   3.768   3.358   3.351
  210EMC      O 3141   3.636   3.216   3.229
  210EMC      C 3142   3.754   3.165   3.167
  210EMC      H 3143   3.488   3.324   3.630
  210EMC      H 3144   3.565   3.476   3.683
  210EMC      H 3145   3.662   3.345   3.613
  210EMC      H 3146   3.448   3.509   3.466
  210EMC      H 3147   3.622   3.531   3.445
  210EMC      H 3148   3.807   3.245   3.112
  210EMC      H 3149   3.725   3.088   3.096
  210EMC      H 3150   3.820   3.120   3.242
  211EMC      C 3151   3.446   2.321   0.351
  211EMC      C 3152   3.556   2.247   0.425
  211EMC      O 3153   3.644   2.339   0.489
  211EMC      C 3154   3.745   2.386   0.412
  211EMC      O 3155   3.767   2.356   0.297
  211EMC      O 3156   3.819   2.471   0.488
  211EMC      C 3157   3.930   2.528   0.419
  211EMC      H 3158   3.392   2.387   0.419
  211EMC      H 3159   3.375   2.250   0.307
  211EMC      H 3160   3.487   2.383   0.272
  211EMC      H 3161   3.511   2.184   0.504
  211EMC      H 3162   3.610   2.178   0.358
  211EMC      H 3163   4.000   2.450   0.387
  211EMC      H 3164   3.982   2.595   0.488
  211EMC      H 3165   3.897   2.587   0.333
  212EMC      C 3166   3.680   3.658   2.722
  212EMC      C 3167   3.646   3.518   2.678
  212EMC      O 3168   3.519   3.478   2.730
  212EMC      C 3169   3.522   3.424   2.855
  212EMC      O 3170   3.621   3.406   2.923
  212EMC      O 3171   3.395   3.392   2.889
  212EMC      C 3172   3.383   3.333   3.019
  212EMC      H 3173   3.601   3.728   2.693
  212EMC      H 3174   3.775   3.691   2.677
  212EMC      H 3175   3.690   3.664   2.831
  212EMC      H 3176   3.638   3.515   2.568
  212EMC      H 3177   3.725   3.447   2.705
  212EMC      H 3178   3.439   3.238   3.024
  212EMC      H 3179   3.277   3.311   3.037
  212EMC      H 3180   3.417   3.402   3.096
  213EMC      C 3181   1.555   3.527   2.848
  213EMC      C 3182   1.589   3.386   2.890
  213EMC      O 3183   1.472   3.319   2.938
  213EMC      C 3184   1.446   3.338   3.070
  213EMC      O 3185   1.511   3.404   3.148
  213EMC      O 3186   1.333   3.268   3.100
  213EMC      C 3187   1.293   3.279   3.237
  213EMC      H 3188   1.474   3.527   2.773
  213EMC      H 3189   1.643   3.577   2.804
  213EMC      H 3190   1.520   3.586   2.932
  213EMC      H 3191   1.624   3.329   2.802
  213EMC      H 3192   1.670   3.384   2.963
  213EMC      H 3193   1.371   3.238   3.304
  213EMC      H 3194   1.202   3.219   3.251
  213EMC      H 3195   1.271   3.382   3.263
  214EMC      C 3196   2.864   3.739   0.274
  214EMC      C 3197   2.861   3.603   0.209
  214EMC      O 3198   2.734   3.540   0.227
  214EMC      C 3199   2.720   3.470   0.343
  214EMC      O 3200   2.805   3.456   0.429
  214EMC      O 3201   2.595   3.418   0.345
  214EMC      C 3202   2.567   3.341   0.462
  214EMC      H 3203   2.783   3.802   0.236
  214EMC      H 3204   2.960   3.789   0.255
  214EMC      H 3205   2.851   3.731   0.382
  214EMC      H 3206   2.876   3.614   0.100
  214EMC      H 3207   2.944   3.539   0.245
  214EMC      H 3208   2.635   3.254   0.469
  214EMC      H 3209   2.464   3.303   0.454
  214EMC      H 3210   2.574   3.402   0.551
  215EMC      C 3211   0.590   2.525   1.114
  215EMC      C 3212   0.598   2.407   1.207
  215EMC      O 3213   0.732   2.388   1.254
  215EMC      C 3214   0.811   2.313   1.173
  215EMC      O 3215   0.779   2.261   1.068
  215EMC      O 3216   0.934   2.305   1.231
  215EMC      C 3217   1.028   2.228   1.157
  215EMC      H 3218   0.629   2.616   1.162
  215EMC      H 3219   0.486   2.543   1.083
  215EMC      H 3220   0.650   2.509   1.024
  215EMC      H 3221   0.536   2.426   1.296
  215EMC      H 3222   0.558   2.316   1.161
  215EMC      H 3223   0.994   2.124   1.147
  215EMC      H 3224   1.123   2.228   1.212
  215EMC      H 3225   1.045   2.272   1.059
  216EMC      C 3226   2.269   1.586   3.136
  216EMC      C 3227   2.128   1.569   3.086
  216EMC      O 3228   2.071   1.448   3.136
  216EMC      C 3229   2.097   1.337   3.063
  216EMC      O 3230   2.162   1.331   2.961
  216EMC      O 3231   2.036   1.232   3.124
  216EMC      C 3232   2.055   1.107   3.057
  216EMC      H 3233   2.271   1.584   3.246
  216EMC      H 3234   2.311   1.682   3.103
  216EMC      H 3235   2.334   1.506   3.101
  216EMC      H 3236   2.065   1.652   3.122
  216EMC      H 3237   2.124   1.573   2.976
  216EMC      H 3238   2.012   1.110   2.956
  216EMC      H 3239   2.002   1.030   3.114
  216EMC      H 3240   2.161   1.081   3.054
  217EMC      C 3241   1.012   3.577   1.599
  217EMC      C 3242   0.870   3.529   1.623
  217EMC      O 3243   0.776   3.623   1.572
  217EMC      C 3244   0.742   3.723   1.658
  217EMC      O 3245   0.783   3.738   1.771
  217EMC      O 3246   0.652   3.803   1.595
  217EMC      C 3247   0.607   3.913   1.674
  217EMC      H 3248   1.028   3.597   1.492
  217EMC      H 3249   1.084   3.502   1.632
  217EMC      H 3250   1.031   3.670   1.652
  217EMC      H 3251   0.854   3.435   1.568
  217EMC      H 3252   0.853   3.507   1.729
  217EMC      H 3253   0.556   3.878   1.764
  217EMC      H 3254   0.536   3.971   1.614
  217EMC      H 3255   0.691   3.978   1.700
  218EMC      C 3256   2.340   0.774   2.315
  218EMC      C 3257   2.236   0.684   2.251
  218EMC      O 3258   2.115   0.755   2.228
  218EMC      C 3259   2.028   0.757   2.333
  218EMC      O 3260   2.045   0.705   2.442
  218EMC      O 3261   1.919   0.828   2.296
  218EMC      C 3262   1.819   0.838   2.397
  218EMC      H 3263   2.356   0.864   2.253
  218EMC      H 3264   2.435   0.722   2.327
  218EMC      H 3265   2.307   0.809   2.413
  218EMC      H 3266   2.273   0.650   2.153
  218EMC      H 3267   2.220   0.593   2.311
  218EMC      H 3268   1.781   0.739   2.425
  218EMC      H 3269   1.736   0.897   2.357
  218EMC      H 3270   1.858   0.890   2.485
  219EMC      C 3271   3.639   3.813   3.596
  219EMC      C 3272   3.573   3.895   3.488
  219EMC      O 3273   3.611   3.847   3.358
  219EMC      C 3274   3.726   3.900   3.309
  219EMC      O 3275   3.797   3.982   3.363
  219EMC      O 3276   3.747   3.845   3.187
  219EMC      C 3277   3.866   3.892   3.122
  219EMC      H 3278   3.616   3.706   3.584
  219EMC      H 3279   3.606   3.846   3.696
  219EMC      H 3280   3.748   3.823   3.592
  219EMC      H 3281   3.463   3.884   3.495
  219EMC      H 3282   3.594   4.002   3.500
  219EMC      H 3283   3.860   4.000   3.105
  219EMC      H 3284   3.874   3.842   3.025
  219EMC      H 3285   3.954   3.867   3.181
  220EMC      C 3286   2.860   1.069   0.998
  220EMC      C 3287   2.915   1.137   0.876
  220EMC      O 3288   2.914   1.279   0.893
  220EMC      C 3289   2.797   1.341   0.858
  220EMC      O 3290   2.697   1.287   0.815
  220EMC      O 3291   2.812   1.474   0.881
  220EMC      C 3292   2.697   1.551   0.848
  220EMC      H 3293   2.915   1.099   1.088
  220EMC      H 3294   2.866   0.959   0.988
  220EMC      H 3295   2.755   1.095   1.015
  220EMC      H 3296   3.020   1.108   0.861
  220EMC      H 3297   2.861   1.107   0.785
  220EMC      H 3298   2.673   1.542   0.741
  220EMC      H 3299   2.720   1.656   0.869
  220EMC      H 3300   2.612   1.521   0.910
  221EMC      C 3301   0.966   2.702   0.343
  221EMC      C 3302   1.073   2.668   0.444
  221EMC      O 3303   1.053   2.741   0.565
  221EMC      C 3304   1.108   2.865   0.568
  221EMC      O 3305   1.172   2.918   0.479
  221EMC      O 3306   1.080   2.921   0.689
  221EMC      C 3307   1.132   3.052   0.706
  221EMC      H 3308   0.866   2.683   0.385
  221EMC      H 3309   0.978   2.641   0.252
  221EMC      H 3310   0.969   2.807   0.315
  221EMC      H 3311   1.068   2.561   0.470
  221EMC      H 3312   1.174   2.685   0.403
  221EMC      H 3313   1.242   3.052   0.699
  221EMC      H 3314   1.104   3.087   0.805
  221EMC      H 3315   1.089   3.121   0.632
  222EMC      C 3316   2.112   2.044   2.965
  222EMC      C 3317   2.234   1.990   2.895
  222EMC      O 3318   2.293   2.089   2.811
  222EMC      C 3319   2.241   2.097   2.686
  222EMC      O 3320   2.152   2.028   2.640
  222EMC      O 3321   2.307   2.196   2.620
  222EMC      C 3322   2.263   2.215   2.485
  222EMC      H 3323   2.137   2.135   3.022
  222EMC      H 3324   2.070   1.970   3.034
  222EMC      H 3325   2.034   2.071   2.893
  222EMC      H 3326   2.311   1.962   2.970
  222EMC      H 3327   2.211   1.898   2.839
  222EMC      H 3328   2.279   2.124   2.425
  222EMC      H 3329   2.322   2.296   2.441
  222EMC      H 3330   2.158   2.244   2.483
  223EMC      C 3331   1.098   2.704   2.114
  223EMC      C 3332   0.966   2.760   2.161
  223EMC      O 3333   0.868   2.656   2.173
  223EMC      C 3334   0.800   2.627   2.060
  223EMC      O 3335   0.814   2.681   1.951
  223EMC      O 3336   0.713   2.528   2.088
  223EMC      C 3337   0.633   2.487   1.977
  223EMC      H 3338   1.132   2.625   2.181
  223EMC      H 3339   1.174   2.783   2.110
  223EMC      H 3340   1.089   2.660   2.014
  223EMC      H 3341   0.978   2.805   2.261
  223EMC      H 3342   0.931   2.841   2.095
  223EMC      H 3343   0.571   2.570   1.940
  223EMC      H 3344   0.566   2.407   2.010
  223EMC      H 3345   0.696   2.448   1.897
  224EMC      C 3346   0.872   3.501   0.715
  224EMC      C 3347   0.929   3.640   0.703
  224EMC      O 3348   0.864   3.730   0.793
  224EMC      C 3349   0.750   3.787   0.747
  224EMC      O 3350   0.700   3.769   0.637
  224EMC      O 3351   0.701   3.867   0.844
  224EMC      C 3352   0.580   3.935   0.808
  224EMC      H 3353   0.879   3.465   0.819
  224EMC      H 3354   0.926   3.431   0.650
  224EMC      H 3355   0.766   3.499   0.688
  224EMC      H 3356   1.036   3.639   0.730
  224EMC      H 3357   0.924   3.677   0.599
  224EMC      H 3358   0.596   4.000   0.721
  224EMC      H 3359   0.549   3.997   0.893
  224EMC      H 3360   0.500   3.863   0.788
  225EMC      C 3361   3.108   2.439   2.643
  225EMC      C 3362   3.214   2.396   2.544
  225EMC      O 3363   3.161   2.298   2.454
  225EMC      C 3364   3.169   2.169   2.498
  225EMC      O 3365   3.215   2.131   2.603
  225EMC      O 3366   3.115   2.090   2.402
  225EMC      C 3367   3.116   1.951   2.434
  225EMC      H 3368   3.019   2.476   2.591
  225EMC      H 3369   3.147   2.519   2.708
  225EMC      H 3370   3.076   2.356   2.705
  225EMC      H 3371   3.244   2.482   2.482
  225EMC      H 3372   3.304   2.360   2.594
  225EMC      H 3373   3.220   1.915   2.448
  225EMC      H 3374   3.071   1.896   2.351
  225EMC      H 3375   3.057   1.931   2.524
  226EMC      C 3376   3.888   2.968   3.529
  226EMC      C 3377   3.872   3.119   3.536
  226EMC      O 3378   3.850   3.160   3.671
  226EMC      C 3379   3.720   3.157   3.712
  226EMC      O 3380   3.624   3.124   3.645
  226EMC      O 3381   3.716   3.199   3.841
  226EMC      C 3382   3.585   3.202   3.897
  226EMC      H 3383   3.970   2.935   3.595
  226EMC      H 3384   3.912   2.937   3.426
  226EMC      H 3385   3.798   2.917   3.561
  226EMC      H 3386   3.965   3.168   3.502
  226EMC      H 3387   3.792   3.154   3.469
  226EMC      H 3388   3.520   3.271   3.842
  226EMC      H 3389   3.593   3.237   4.000
  226EMC      H 3390   3.542   3.102   3.898
  227EMC      C 3391   1.204   0.417   1.148
  227EMC      C 3392   1.307   0.525   1.173
  227EMC      O 3393   1.265   0.611   1.279
  227EMC      C 3394   1.184   0.714   1.241
  227EMC      O 3395   1.147   0.739   1.128
  227EMC      O 3396   1.153   0.785   1.352
  227EMC      C 3397   1.069   0.898   1.327
  227EMC      H 3398   1.185   0.360   1.241
  227EMC      H 3399   1.240   0.347   1.071
  227EMC      H 3400   1.109   0.459   1.116
  227EMC      H 3401   1.402   0.479   1.205
  227EMC      H 3402   1.329   0.581   1.081
  227EMC      H 3403   1.118   0.969   1.259
  227EMC      H 3404   1.050   0.948   1.422
  227EMC      H 3405   0.973   0.866   1.286
  228EMC      C 3406   1.756   0.705   3.289
  228EMC      C 3407   1.728   0.647   3.425
  228EMC      O 3408   1.703   0.751   3.520
  228EMC      C 3409   1.813   0.803   3.580
  228EMC      O 3410   1.928   0.771   3.560
  228EMC      O 3411   1.771   0.900   3.666
  228EMC      C 3412   1.878   0.964   3.736
  228EMC      H 3413   1.673   0.769   3.257
  228EMC      H 3414   1.770   0.625   3.215
  228EMC      H 3415   1.845   0.767   3.290
  228EMC      H 3416   1.638   0.584   3.421
  228EMC      H 3417   1.810   0.581   3.458
  228EMC      H 3418   1.933   0.892   3.798
  228EMC      H 3419   1.834   1.039   3.802
  228EMC      H 3420   1.945   1.015   3.666
  229EMC      C 3421   2.404   0.743   3.682
  229EMC      C 3422   2.357   0.857   3.596
  229EMC      O 3423   2.325   0.812   3.464
  229EMC      C 3424   2.430   0.808   3.377
  229EMC      O 3425   2.545   0.840   3.402
  229EMC      O 3426   2.384   0.763   3.258
  229EMC      C 3427   2.485   0.754   3.157
  229EMC      H 3428   2.330   0.662   3.684
  229EMC      H 3429   2.422   0.776   3.785
  229EMC      H 3430   2.496   0.700   3.643
  229EMC      H 3431   2.264   0.899   3.638
  229EMC      H 3432   2.429   0.940   3.594
  229EMC      H 3433   2.528   0.853   3.136
  229EMC      H 3434   2.438   0.717   3.066
  229EMC      H 3435   2.563   0.684   3.186
  230EMC      C 3436   1.417   2.809   3.331
  230EMC      C 3437   1.269   2.821   3.355
  230EMC      O 3438   1.239   2.937   3.432
  230EMC      C 3439   1.245   2.921   3.567
  230EMC      O 3440   1.273   2.818   3.625
  230EMC      O 3441   1.214   3.039   3.624
  230EMC      C 3442   1.217   3.037   3.767
  230EMC      H 3443   1.456   2.900   3.283
  230EMC      H 3444   1.440   2.723   3.267
  230EMC      H 3445   1.471   2.797   3.425
  230EMC      H 3446   1.217   2.832   3.258
  230EMC      H 3447   1.228   2.730   3.401
  230EMC      H 3448   1.143   2.965   3.806
  230EMC      H 3449   1.191   3.136   3.804
  230EMC      H 3450   1.317   3.012   3.803
  231EMC      C 3451   2.828   2.224   0.160
  231EMC      C 3452   2.829   2.237   0.310
  231EMC      O 3453   2.962   2.247   0.360
  231EMC      C 3454   3.024   2.128   0.383
  231EMC      O 3455   2.976   2.017   0.367
  231EMC      O 3456   3.149   2.154   0.429
  231EMC      C 3457   3.226   2.037   0.459
  231EMC      H 3458   2.882   2.308   0.114
  231EMC      H 3459   2.725   2.223   0.121
  231EMC      H 3460   2.878   2.132   0.128
  231EMC      H 3461   2.777   2.330   0.340
  231EMC      H 3462   2.773   2.155   0.358
  231EMC      H 3463   3.177   1.978   0.538
  231EMC      H 3464   3.324   2.069   0.495
  231EMC      H 3465   3.240   1.977   0.369
  232EMC      C 3466   1.235   2.388   0.526
  232EMC      C 3467   1.182   2.310   0.408
  232EMC      O 3468   1.082   2.384   0.339
  232EMC      C 3469   0.955   2.371   0.388
  232EMC      O 3470   0.921   2.303   0.483
  232EMC      O 3471   0.873   2.448   0.312
  232EMC      C 3472   0.736   2.444   0.352
  232EMC      H 3473   1.273   2.486   0.493
  232EMC      H 3474   1.316   2.333   0.576
  232EMC      H 3475   1.157   2.407   0.599
  232EMC      H 3476   1.263   2.291   0.336
  232EMC      H 3477   1.145   2.211   0.439
  232EMC      H 3478   0.697   2.341   0.344
  232EMC      H 3479   0.679   2.508   0.285
  232EMC      H 3480   0.725   2.481   0.454
  233EMC      C 3481   1.130   1.906   2.087
  233EMC      C 3482   1.206   2.013   2.012
  233EMC      O 3483   1.309   1.954   1.932
  233EMC      C 3484   1.428   1.934   1.997
  233EMC      O 3485   1.452   1.961   2.113
  233EMC      O 3486   1.514   1.878   1.908
  233EMC      C 3487   1.643   1.852   1.963
  233EMC      H 3488   1.090   1.831   2.017
  233EMC      H 3489   1.046   1.950   2.143
  233EMC      H 3490   1.194   1.853   2.157
  233EMC      H 3491   1.138   2.065   1.942
  233EMC      H 3492   1.245   2.090   2.080
  233EMC      H 3493   1.692   1.945   1.996
  233EMC      H 3494   1.705   1.808   1.884
  233EMC      H 3495   1.636   1.780   2.045
  234EMC      C 3496   3.385   3.702   3.731
  234EMC      C 3497   3.269   3.609   3.757
  234EMC      O 3498   3.294   3.479   3.702
  234EMC      C 3499   3.260   3.465   3.571
  234EMC      O 3500   3.210   3.550   3.500
  234EMC      O 3501   3.290   3.338   3.534
  234EMC      C 3502   3.259   3.308   3.398
  234EMC      H 3503   3.479   3.659   3.771
  234EMC      H 3504   3.369   3.799   3.779
  234EMC      H 3505   3.400   3.718   3.625
  234EMC      H 3506   3.256   3.595   3.866
  234EMC      H 3507   3.175   3.651   3.720
  234EMC      H 3508   3.151   3.319   3.380
  234EMC      H 3509   3.287   3.204   3.379
  234EMC      H 3510   3.316   3.372   3.330
  235EMC      C 3511   0.480   1.322   3.445
  235EMC      C 3512   0.412   1.219   3.532
  235EMC      O 3513   0.455   1.232   3.668
  235EMC      C 3514   0.568   1.163   3.699
  235EMC      O 3515   0.633   1.093   3.624
  235EMC      O 3516   0.596   1.185   3.830
  235EMC      C 3517   0.713   1.118   3.877
  235EMC      H 3518   0.463   1.423   3.483
  235EMC      H 3519   0.443   1.316   3.342
  235EMC      H 3520   0.588   1.306   3.443
  235EMC      H 3521   0.303   1.237   3.532
  235EMC      H 3522   0.426   1.117   3.494
  235EMC      H 3523   0.701   1.009   3.868
  235EMC      H 3524   0.725   1.142   3.983
  235EMC      H 3525   0.801   1.153   3.823
  236EMC      C 3526   3.684   2.788   0.669
  236EMC      C 3527   3.762   2.832   0.547
  236EMC      O 3528   3.674   2.855   0.437
  236EMC      C 3529   3.645   2.745   0.362
  236EMC      O 3530   3.687   2.632   0.380
  236EMC      O 3531   3.561   2.783   0.263
  236EMC      C 3532   3.522   2.677   0.176
  236EMC      H 3533   3.607   2.862   0.694
  236EMC      H 3534   3.751   2.777   0.755
  236EMC      H 3535   3.634   2.694   0.652
  236EMC      H 3536   3.813   2.928   0.568
  236EMC      H 3537   3.841   2.760   0.521
  236EMC      H 3538   3.609   2.634   0.125
  236EMC      H 3539   3.455   2.718   0.100
  236EMC      H 3540   3.468   2.600   0.231
  237EMC      C 3541   1.518   1.252   1.835
  237EMC      C 3542   1.609   1.160   1.757
  237EMC      O 3543   1.536   1.050   1.704
  237EMC      C 3544   1.522   0.944   1.788
  237EMC      O 3545   1.567   0.935   1.901
  237EMC      O 3546   1.451   0.849   1.723
  237EMC      C 3547   1.429   0.730   1.800
  237EMC      H 3548   1.435   1.286   1.772
  237EMC      H 3549   1.574   1.341   1.870
  237EMC      H 3550   1.475   1.202   1.921
  237EMC      H 3551   1.652   1.215   1.671
  237EMC      H 3552   1.695   1.127   1.818
  237EMC      H 3553   1.525   0.682   1.826
  237EMC      H 3554   1.371   0.660   1.740
  237EMC      H 3555   1.372   0.753   1.891
  238EMC      C 3556   2.437   0.293   1.149
  238EMC      C 3557   2.464   0.441   1.161
  238EMC      O 3558   2.342   0.516   1.162
  238EMC      C 3559   2.293   0.548   1.040
  238EMC      O 3560   2.343   0.521   0.932
  238EMC      O 3561   2.178   0.617   1.058
  238EMC      C 3562   2.115   0.659   0.937
  238EMC      H 3563   2.370   0.260   1.230
  238EMC      H 3564   2.530   0.236   1.155
  238EMC      H 3565   2.387   0.270   1.056
  238EMC      H 3566   2.515   0.462   1.257
  238EMC      H 3567   2.532   0.476   1.082
  238EMC      H 3568   2.181   0.726   0.880
  238EMC      H 3569   2.024   0.713   0.963
  238EMC      H 3570   2.087   0.572   0.877
  239EC       O 3571   2.390   2.123   1.619
  239EC       C 3572   2.510   2.128   1.594
  239EC       O 3573   2.574   2.047   1.507
  239EC       C 3574   2.712   2.068   1.525
  239EC       C 3575   2.717   2.207   1.579
  239EC       O 3576   2.596   2.218   1.652
  239EC       H 3577   2.750   1.994   1.597
  239EC       H 3578   2.767   2.058   1.431
  239EC       H 3579   2.717   2.283   1.500
  239EC       H 3580   2.803   2.225   1.645
  240EC       O 3581   2.710   1.605   1.088
  240EC       C 3582   2.830   1.592   1.110
  240EC       O 3583   2.922   1.690   1.092
  240EC       C 3584   3.049   1.630   1.104
  240EC       C 3585   3.020   1.511   1.191
  240EC       O 3586   2.887   1.477   1.155
  240EC       H 3587   3.083   1.601   1.004
  240EC       H 3588   3.122   1.697   1.149
  240EC       H 3589   3.023   1.536   1.297
  240EC       H 3590   3.088   1.427   1.171
  241EC       O 3591   1.104   1.238   2.763
  241EC       C 3592   1.176   1.225   2.666
  241EC       O 3593   1.173   1.118   2.580
  241EC       C 3594   1.287   1.129   2.498
  241EC       C 3595   1.316   1.276   2.500
  241EC       O 3596   1.272   1.315   2.629
  241EC       H 3597   1.368   1.070   2.543
  241EC       H 3598   1.267   1.092   2.397
  241EC       H 3599   1.258   1.330   2.425
  241EC       H 3600   1.422   1.299   2.486
  242EC       O 3601   1.383   3.361   0.340
  242EC       C 3602   1.410   3.242   0.350
  242EC       O 3603   1.536   3.193   0.367
  242EC       C 3604   1.528   3.053   0.349
  242EC       C 3605   1.385   3.024   0.384
  242EC       O 3606   1.317   3.142   0.344
  242EC       H 3607   1.550   3.031   0.244
  242EC       H 3608   1.598   3.000   0.413
  242EC       H 3609   1.371   3.010   0.491
  242EC       H 3610   1.345   2.937   0.331
  243EC       O 3611   3.493   0.780   0.537
  243EC       C 3612   3.584   0.701   0.551
  243EC       O 3613   3.715   0.735   0.569
  243EC       C 3614   3.790   0.617   0.556
  243EC       C 3615   3.692   0.511   0.593
  243EC       O 3616   3.568   0.565   0.549
  243EC       H 3617   3.824   0.609   0.452
  243EC       H 3618   3.877   0.618   0.622
  243EC       H 3619   3.687   0.495   0.701
  243EC       H 3620   3.712   0.415   0.544
  244EC       O 3621   3.809   1.264   2.504
  244EC       C 3622   3.710   1.245   2.572
  244EC       O 3623   3.639   1.342   2.637
  244EC       C 3624   3.549   1.278   2.723
  244EC       C 3625   3.530   1.145   2.657
  244EC       O 3626   3.655   1.121   2.595
  244EC       H 3627   3.596   1.269   2.821
  244EC       H 3628   3.456   1.333   2.732
  244EC       H 3629   3.452   1.148   2.580
  244EC       H 3630   3.506   1.065   2.728
  245EC       O 3631   2.445   1.797   2.618
  245EC       C 3632   2.468   1.692   2.676
  245EC       O 3633   2.442   1.669   2.808
  245EC       C 3634   2.506   1.548   2.841
  245EC       C 3635   2.513   1.477   2.709
  245EC       O 3636   2.526   1.583   2.616
  245EC       H 3637   2.605   1.571   2.881
  245EC       H 3638   2.449   1.492   2.915
  245EC       H 3639   2.421   1.421   2.687
  245EC       H 3640   2.598   1.409   2.702
  246EC       O 3641   3.677   0.685   3.307
  246EC       C 3642   3.728   0.774   3.372
  246EC       O 3643   3.851   0.827   3.349
  246EC       C 3644   3.882   0.909   3.459
  246EC       C 3645   3.747   0.947   3.511
  246EC       O 3646   3.668   0.834   3.480
  246EC       H 3647   3.939   0.849   3.532
  246EC       H 3648   3.941   0.996   3.430
  246EC       H 3649   3.706   1.035   3.459
  246EC       H 3650   3.747   0.966   3.619
  247EC       O 3651   3.294   3.579   2.945
  247EC       C 3652   3.356   3.684   2.944
  247EC       O 3653   3.302   3.807   2.964
  247EC       C 3654   3.400   3.902   2.930
  247EC       C 3655   3.528   3.827   2.952
  247EC       O 3656   3.491   3.693   2.920
  247EC       H 3657   3.386   3.931   2.826
  247EC       H 3658   3.394   3.991   2.993
  247EC       H 3659   3.561   3.831   3.056
  247EC       H 3660   3.609   3.861   2.887
  248EC       O 3661   2.008   2.969   1.278
  248EC       C 3662   2.079   2.959   1.377
  248EC       O 3663   2.072   2.858   1.468
  248EC       C 3664   2.152   2.896   1.578
  248EC       C 3665   2.251   2.990   1.515
  248EC       O 3666   2.176   3.050   1.410
  248EC       H 3667   2.089   2.946   1.651
  248EC       H 3668   2.200   2.810   1.624
  248EC       H 3669   2.336   2.937   1.472
  248EC       H 3670   2.287   3.066   1.585
  249EC       O 3671   4.001   3.848   3.676
  249EC       C 3672   3.960   3.765   3.596
  249EC       O 3673   3.923   3.638   3.628
  249EC       C 3674   3.907   3.569   3.506
  249EC       C 3675   3.875   3.678   3.410
  249EC       O 3676   3.947   3.789   3.462
  249EC       H 3677   4.001   3.518   3.482
  249EC       H 3678   3.827   3.494   3.513
  249EC       H 3679   3.768   3.702   3.409
  249EC       H 3680   3.907   3.656   3.307
  250EC       O 3681   3.708   2.230   2.106
  250EC       C 3682   3.698   2.347   2.074
  250EC       O 3683   3.599   2.399   1.996
  250EC       C 3684   3.637   2.530   1.963
  250EC       C 3685   3.727   2.568   2.076
  250EC       O 3686   3.787   2.444   2.112
  250EC       H 3687   3.689   2.528   1.867
  250EC       H 3688   3.551   2.596   1.955
  250EC       H 3689   3.672   2.607   2.161
  250EC       H 3690   3.804   2.641   2.046
  251EC       O 3691   2.033   1.135   0.947
  251EC       C 3692   2.135   1.077   0.981
  251EC       O 3693   2.165   0.947   0.949
  251EC       C 3694   2.277   0.912   1.026
  251EC       C 3695   2.344   1.043   1.052
  251EC       O 3696   2.234   1.134   1.056
  251EC       H 3697   2.242   0.864   1.119
  251EC       H 3698   2.342   0.842   0.973
  251EC       H 3699   2.410   1.072   0.970
  251EC       H 3700   2.399   1.046   1.146
  252EC       O 3701   1.481   2.582   0.584
  252EC       C 3702   1.590   2.526   0.584
  252EC       O 3703   1.710   2.588   0.566
  252EC       C 3704   1.806   2.487   0.548
  252EC       C 3705   1.745   2.370   0.619
  252EC       O 3706   1.606   2.391   0.601
  252EC       H 3707   1.817   2.469   0.441
  252EC       H 3708   1.902   2.515   0.591
  252EC       H 3709   1.767   2.371   0.726
  252EC       H 3710   1.775   2.274   0.577
  253EC       O 3711   2.712   1.343   1.920
  253EC       C 3712   2.815   1.293   1.879
  253EC       O 3713   2.931   1.360   1.856
  253EC       C 3714   3.016   1.272   1.787
  253EC       C 3715   2.967   1.137   1.830
  253EC       O 3716   2.828   1.159   1.849
  253EC       H 3717   3.004   1.289   1.679
  253EC       H 3718   3.121   1.288   1.814
  253EC       H 3719   3.012   1.105   1.924
  253EC       H 3720   2.983   1.060   1.754
  254EC       O 3721   2.720   1.774   2.500
  254EC       C 3722   2.665   1.882   2.498
  254EC       O 3723   2.651   1.961   2.388
  254EC       C 3724   2.605   2.086   2.433
  254EC       C 3725   2.536   2.053   2.562
  254EC       O 3726   2.610   1.941   2.609
  254EC       H 3727   2.692   2.151   2.449
  254EC       H 3728   2.538   2.133   2.361
  254EC       H 3729   2.433   2.022   2.546
  254EC       H 3730   2.538   2.134   2.634
  255EC       O 3731   3.912   2.161   0.320
  255EC       C 3732   3.898   2.166   0.442
  255EC       O 3733   4.000   2.173   0.532
  255EC       C 3734   3.944   2.152   0.659
  255EC       C 3735   3.802   2.196   0.640
  255EC       O 3736   3.776   2.164   0.504
  255EC       H 3737   3.951   2.045   0.683
  255EC       H 3738   3.995   2.210   0.736
  255EC       H 3739   3.790   2.304   0.654
  255EC       H 3740   3.732   2.144   0.706
  256EC       O 3741   3.604   0.392   0.988
  256EC       C 3742   3.508   0.429   1.054
  256EC       O 3743   3.495   0.551   1.113
  256EC       C 3744   3.384   0.544   1.198
  256EC       C 3745   3.301   0.436   1.136
  256EC       O 3746   3.398   0.350   1.078
  256EC       H 3747   3.419   0.517   1.298
  256EC       H 3748   3.331   0.639   1.203
  256EC       H 3749   3.237   0.474   1.056
  256EC       H 3750   3.240   0.382   1.208
  257EC       O 3751   2.352   0.399   0.654
  257EC       C 3752   2.266   0.439   0.577
  257EC       O 3753   2.234   0.379   0.459
  257EC       C 3754   2.150   0.469   0.390
  257EC       C 3755   2.088   0.548   0.500
  257EC       O 3756   2.190   0.551   0.599
  257EC       H 3757   2.212   0.530   0.324
  257EC       H 3758   2.076   0.416   0.330
  257EC       H 3759   2.000   0.499   0.542
  257EC       H 3760   2.061   0.650   0.470
  258EC       O 3761   2.122   3.910   1.432
  258EC       C 3762   2.089   3.802   1.386
  258EC       O 3763   2.161   3.730   1.295
  258EC       C 3764   2.079   3.626   1.250
  258EC       C 3765   1.984   3.606   1.365
  258EC       O 3766   1.973   3.737   1.419
  258EC       H 3767   2.027   3.659   1.159
  258EC       H 3768   2.136   3.536   1.228
  258EC       H 3769   2.025   3.540   1.441
  258EC       H 3770   1.886   3.569   1.333
  259EC       O 3771   2.189   3.147   0.827
  259EC       C 3772   2.164   3.222   0.920
  259EC       O 3773   2.094   3.338   0.910
  259EC       C 3774   2.108   3.405   1.032
  259EC       C 3775   2.134   3.294   1.129
  259EC       O 3776   2.203   3.199   1.049
  259EC       H 3777   2.193   3.474   1.025
  259EC       H 3778   2.018   3.462   1.058
  259EC       H 3779   2.041   3.248   1.165
  259EC       H 3780   2.195   3.324   1.214
  260EC       O 3781   1.410   0.496   0.729
  260EC       C 3782   1.445   0.613   0.729
  260EC       O 3783   1.359   0.719   0.733
  260EC       C 3784   1.436   0.834   0.707
  260EC       C 3785   1.573   0.794   0.752
  260EC       O 3786   1.575   0.654   0.725
  260EC       H 3787   1.432   0.855   0.599
  260EC       H 3788   1.399   0.921   0.762
  260EC       H 3789   1.587   0.809   0.859
  260EC       H 3790   1.653   0.845   0.697
  261EC       O 3791   0.665   3.726   2.836
  261EC       C 3792   0.612   3.739   2.726
  261EC       O 3793   0.538   3.846   2.688
  261EC       C 3794   0.476   3.811   2.566
  261EC       C 3795   0.569   3.708   2.510
  261EC       O 3796   0.621   3.646   2.626
  261EC       H 3797   0.377   3.770   2.588
  261EC       H 3798   0.465   3.898   2.500
  261EC       H 3799   0.652   3.754   2.454
  261EC       H 3800   0.519   3.635   2.446
  262EC       O 3801   3.952   0.621   2.428
  262EC       C 3802   3.935   0.504   2.461
  262EC       O 3803   3.885   0.463   2.581
  262EC       C 3804   3.905   0.324   2.588
  262EC       C 3805   3.909   0.284   2.443
  262EC       O 3806   3.966   0.398   2.380
  262EC       H 3807   4.000   0.305   2.639
  262EC       H 3808   3.824   0.275   2.642
  262EC       H 3809   3.809   0.267   2.403
  262EC       H 3810   3.971   0.195   2.426
  263EC       O 3811   2.895   1.331   2.407
  263EC       C 3812   2.875   1.213   2.429
  263EC       O 3813   2.854   1.158   2.552
  263EC       C 3814   2.861   1.018   2.536
  263EC       C 3815   2.823   0.999   2.393
  263EC       O 3816   2.872   1.117   2.331
  263EC       H 3817   2.964   0.986   2.557
  263EC       H 3818   2.793   0.967   2.604
  263EC       H 3819   2.715   0.994   2.379
  263EC       H 3820   2.869   0.910   2.348
  264EC       O 3821   3.736   2.324   3.296
  264EC       C 3822   3.782   2.213   3.271
  264EC       O 3823   3.721   2.119   3.194
  264EC       C 3824   3.792   1.999   3.212
  264EC       C 3825   3.929   2.048   3.250
  264EC       O 3826   3.901   2.168   3.320
  264EC       H 3827   3.745   1.942   3.292
  264EC       H 3828   3.794   1.940   3.120
  264EC       H 3829   3.990   2.071   3.162
  264EC       H 3830   3.983   1.977   3.314
  265EC       O 3831   2.501   0.492   2.165
  265EC       C 3832   2.540   0.508   2.050
  265EC       O 3833   2.573   0.408   1.964
  265EC       C 3834   2.636   0.468   1.854
  265EC       C 3835   2.580   0.607   1.855
  265EC       O 3836   2.558   0.631   1.993
  265EC       H 3837   2.744   0.468   1.871
  265EC       H 3838   2.614   0.416   1.761
  265EC       H 3839   2.484   0.613   1.802
  265EC       H 3840   2.648   0.682   1.813
  266EC       O 3841   0.431   3.372   1.945
  266EC       C 3842   0.359   3.279   1.977
  266EC       O 3843   0.228   3.266   1.942
  266EC       C 3844   0.175   3.161   2.019
  266EC       C 3845   0.297   3.078   2.050
  266EC       O 3846   0.400   3.175   2.056
  266EC       H 3847   0.130   3.203   2.109
  266EC       H 3848   0.100   3.105   1.964
  266EC       H 3849   0.319   3.007   1.970
  266EC       H 3850   0.289   3.024   2.144
  267EC       O 3851   3.478   2.089   2.525
  267EC       C 3852   3.427   2.083   2.635
  267EC       O 3853   3.401   2.190   2.715
  267EC       C 3854   3.366   2.139   2.842
  267EC       C 3855   3.315   2.002   2.810
  267EC       O 3856   3.391   1.965   2.696
  267EC       H 3857   3.457   2.136   2.903
  267EC       H 3858   3.291   2.201   2.891
  267EC       H 3859   3.209   2.003   2.782
  267EC       H 3860   3.330   1.931   2.891
  268EC       O 3861   1.330   1.087   0.250
  268EC       C 3862   1.406   1.180   0.274
  268EC       O 3863   1.368   1.309   0.290
  268EC       C 3864   1.486   1.386   0.292
  268EC       C 3865   1.589   1.289   0.339
  268EC       O 3866   1.542   1.165   0.287
  268EC       H 3867   1.505   1.422   0.190
  268EC       H 3868   1.477   1.472   0.358
  268EC       H 3869   1.593   1.283   0.448
  268EC       H 3870   1.689   1.311   0.300
  269EC       O 3871   2.627   2.667   1.311
  269EC       C 3872   2.730   2.602   1.300
  269EC       O 3873   2.856   2.654   1.304
  269EC       C 3874   2.944   2.552   1.263
  269EC       C 3875   2.869   2.428   1.298
  269EC       O 3876   2.734   2.466   1.281
  269EC       H 3877   2.961   2.562   1.155
  269EC       H 3878   3.040   2.559   1.315
  269EC       H 3879   2.885   2.398   1.402
  269EC       H 3880   2.894   2.343   1.233
  270EC       O 3881   3.067   3.156   3.503
  270EC       C 3882   2.946   3.137   3.500
  270EC       O 3883   2.884   3.023   3.542
  270EC       C 3884   2.750   3.032   3.500
  270EC       C 3885   2.728   3.179   3.490
  270EC       O 3886   2.856   3.229   3.453
  270EC       H 3887   2.742   2.982   3.403
  270EC       H 3888   2.683   2.985   3.571
  270EC       H 3889   2.699   3.223   3.586
  270EC       H 3890   2.653   3.206   3.414
  271EC       O 3891   2.743   1.845   3.122
  271EC       C 3892   2.691   1.955   3.120
  271EC       O 3893   2.556   1.977   3.121
  271EC       C 3894   2.537   2.113   3.093
  271EC       C 3895   2.665   2.175   3.141
  271EC       O 3896   2.760   2.073   3.117
  271EC       H 3897   2.522   2.125   2.986
  271EC       H 3898   2.450   2.153   3.146
  271EC       H 3899   2.663   2.197   3.248
  271EC       H 3900   2.691   2.266   3.086
  272EC       O 3901   1.476   1.907   3.880
  272EC       C 3902   1.427   1.872   3.774
  272EC       O 3903   1.342   1.948   3.698
  272EC       C 3904   1.289   1.864   3.599
  272EC       C 3905   1.395   1.759   3.584
  272EC       O 3906   1.449   1.750   3.715
  272EC       H 3907   1.195   1.823   3.635
  272EC       H 3908   1.272   1.918   3.506
  272EC       H 3909   1.474   1.790   3.515
  272EC       H 3910   1.355   1.662   3.553
  273EC       O 3911   2.945   3.646   2.567
  273EC       C 3912   2.954   3.543   2.503
  273EC       O 3913   3.039   3.523   2.398
  273EC       C 3914   3.002   3.402   2.338
  273EC       C 3915   2.937   3.327   2.450
  273EC       O 3916   2.879   3.431   2.528
  273EC       H 3917   2.932   3.424   2.256
  273EC       H 3918   3.088   3.349   2.297
  273EC       H 3919   3.010   3.273   2.511
  273EC       H 3920   2.860   3.257   2.416
  274EC       O 3921   2.346   0.632   0.466
  274EC       C 3922   2.351   0.748   0.428
  274EC       O 3923   2.251   0.812   0.360
  274EC       C 3924   2.305   0.933   0.314
  274EC       C 3925   2.415   0.960   0.412
  274EC       O 3926   2.458   0.830   0.448
  274EC       H 3927   2.343   0.918   0.212
  274EC       H 3928   2.230   1.012   0.313
  274EC       H 3929   2.378   1.011   0.502
  274EC       H 3930   2.497   1.018   0.369
  275EC       O 3931   0.545   2.836   3.618
  275EC       C 3932   0.518   2.950   3.583
  275EC       O 3933   0.610   3.043   3.544
  275EC       C 3934   0.543   3.166   3.536
  275EC       C 3935   0.401   3.125   3.511
  275EC       O 3936   0.391   3.001   3.579
  275EC       H 3937   0.555   3.218   3.632
  275EC       H 3938   0.583   3.228   3.456
  275EC       H 3939   0.382   3.109   3.404
  275EC       H 3940   0.329   3.197   3.550
  276EC       O 3941   1.065   3.350   0.799
  276EC       C 3942   1.169   3.359   0.863
  276EC       O 3943   1.221   3.261   0.942
  276EC       C 3944   1.326   3.319   1.016
  276EC       C 3945   1.368   3.433   0.929
  276EC       O 3946   1.247   3.471   0.865
  276EC       H 3947   1.286   3.353   1.112
  276EC       H 3948   1.407   3.248   1.033
  276EC       H 3949   1.441   3.403   0.853
  276EC       H 3950   1.410   3.517   0.986
  277EC       O 3951   3.359   3.516   0.469
  277EC       C 3952   3.287   3.420   0.491
  277EC       O 3953   3.153   3.416   0.465
  277EC       C 3954   3.104   3.299   0.526
  277EC       C 3955   3.224   3.210   0.530
  277EC       O 3956   3.331   3.302   0.545
  277EC       H 3957   3.068   3.325   0.626
  277EC       H 3958   3.022   3.255   0.468
  277EC       H 3959   3.238   3.155   0.437
  277EC       H 3960   3.222   3.140   0.614
  278EC       O 3961   2.213   1.763   3.914
  278EC       C 3962   2.100   1.727   3.885
  278EC       O 3963   1.999   1.810   3.848
  278EC       C 3964   1.881   1.734   3.848
  278EC       C 3965   1.931   1.595   3.825
  278EC       O 3966   2.058   1.596   3.888
  278EC       H 3967   1.832   1.745   3.946
  278EC       H 3968   1.812   1.767   3.770
  278EC       H 3969   1.944   1.573   3.718
  278EC       H 3970   1.867   1.518   3.869
  279EC       O 3971   0.900   1.920   2.945
  279EC       C 3972   0.780   1.904   2.929
  279EC       O 3973   0.712   1.926   2.813
  279EC       C 3974   0.575   1.920   2.843
  279EC       C 3975   0.572   1.833   2.964
  279EC       O 3976   0.695   1.862   3.028
  279EC       H 3977   0.540   2.022   2.864
  279EC       H 3978   0.518   1.879   2.760
  279EC       H 3979   0.569   1.727   2.939
  279EC       H 3980   0.487   1.855   3.031
  280EC       O 3981   3.608   3.920   1.086
  280EC       C 3982   3.583   3.840   0.998
  280EC       O 3983   3.514   3.724   1.015
  280EC       C 3984   3.528   3.650   0.897
  280EC       C 3985   3.553   3.756   0.794
  280EC       O 3986   3.622   3.856   0.868
  280EC       H 3987   3.614   3.582   0.908
  280EC       H 3988   3.439   3.591   0.875
  280EC       H 3989   3.460   3.798   0.755
  280EC       H 3990   3.614   3.720   0.710
  281EC       O 3991   1.580   0.720   2.067
  281EC       C 3992   1.603   0.643   2.159
  281EC       O 3993   1.725   0.589   2.187
  281EC       C 3994   1.705   0.490   2.284
  281EC       C 3995   1.580   0.535   2.352
  281EC       O 3996   1.509   0.601   2.248
  281EC       H 3997   1.692   0.394   2.232
  281EC       H 3998   1.789   0.482   2.352
  281EC       H 3999   1.600   0.607   2.432
  281EC       H 4000   1.521   0.452   2.393
  282EC       O 4001   2.413   1.549   2.212
  282EC       C 4002   2.293   1.529   2.207
  282EC       O 4003   2.234   1.408   2.229
  282EC       C 4004   2.099   1.421   2.190
  282EC       C 4005   2.074   1.567   2.207
  282EC       O 4006   2.200   1.625   2.177
  282EC       H 4007   2.090   1.388   2.086
  282EC       H 4008   2.034   1.360   2.253
  282EC       H 4009   2.046   1.593   2.309
  282EC       H 4010   1.997   1.605   2.138
  283EC       O 4011   1.981   2.481   2.374
  283EC       C 4012   1.894   2.536   2.439
  283EC       O 4013   1.761   2.508   2.431
  283EC       C 4014   1.694   2.609   2.502
  283EC       C 4015   1.797   2.655   2.600
  283EC       O 4016   1.919   2.636   2.530
  283EC       H 4017   1.665   2.688   2.432
  283EC       H 4018   1.604   2.571   2.552
  283EC       H 4019   1.798   2.594   2.691
  283EC       H 4020   1.785   2.760   2.629
  284EC       O 4021   3.924   3.255   0.941
  284EC       C 4022   3.816   3.227   0.990
  284EC       O 4023   3.714   3.315   1.008
  284EC       C 4024   3.618   3.251   1.089
  284EC       C 4025   3.643   3.106   1.062
  284EC       O 4026   3.783   3.102   1.036
  284EC       H 4027   3.638   3.278   1.194
  284EC       H 4028   3.517   3.281   1.063
  284EC       H 4029   3.590   3.071   0.973
  284EC       H 4030   3.618   3.042   1.147
  285EC       O 4031   3.169   1.035   1.192
  285EC       C 4032   3.182   1.083   1.303
  285EC       O 4033   3.201   1.216   1.329
  285EC       C 4034   3.235   1.227   1.465
  285EC       C 4035   3.172   1.105   1.525
  285EC       O 4036   3.179   1.010   1.419
  285EC       H 4037   3.344   1.226   1.473
  285EC       H 4038   3.196   1.319   1.508
  285EC       H 4039   3.067   1.122   1.551
  285EC       H 4040   3.225   1.069   1.613
  286EC       O 4041   3.665   1.522   1.671
  286EC       C 4042   3.632   1.586   1.770
  286EC       O 4043   3.504   1.612   1.807
  286EC       C 4044   3.509   1.708   1.910
  286EC       C 4045   3.645   1.685   1.969
  286EC       O 4046   3.721   1.642   1.858
  286EC       H 4047   3.500   1.808   1.865
  286EC       H 4048   3.429   1.693   1.983
  286EC       H 4049   3.644   1.606   2.044
  286EC       H 4050   3.688   1.776   2.013
  287EC       O 4051   3.025   0.528   0.273
  287EC       C 4052   3.068   0.417   0.245
  287EC       O 4053   3.196   0.376   0.267
  287EC       C 4054   3.212   0.254   0.199
  287EC       C 4055   3.072   0.201   0.192
  287EC       O 4056   2.994   0.319   0.185
  287EC       H 4057   3.254   0.275   0.100
  287EC       H 4058   3.279   0.186   0.253
  287EC       H 4059   3.044   0.146   0.282
  287EC       H 4060   3.055   0.138   0.104
  288EC       O 4061   3.449   0.573   2.332
  288EC       C 4062   3.434   0.455   2.307
  288EC       O 4063   3.528   0.374   2.249
  288EC       C 4064   3.463   0.254   2.216
  288EC       C 4065   3.350   0.248   2.314
  288EC       O 4066   3.319   0.386   2.334
  288EC       H 4067   3.428   0.260   2.113
  288EC       H 4068   3.530   0.169   2.226
  288EC       H 4069   3.381   0.205   2.410
  288EC       H 4070   3.263   0.194   2.276
  289EC       O 4071   0.967   2.725   3.097
  289EC       C 4072   1.057   2.750   3.018
  289EC       O 4073   1.075   2.688   2.899
  289EC       C 4074   1.201   2.728   2.851
  289EC       C 4075   1.221   2.861   2.917
  289EC       O 4076   1.153   2.846   3.040
  289EC       H 4077   1.276   2.654   2.883
  289EC       H 4078   1.202   2.735   2.742
  289EC       H 4079   1.175   2.942   2.860
  289EC       H 4080   1.327   2.885   2.933
  290EC       O 4081   3.797   3.691   1.579
  290EC       C 4082   3.695   3.625   1.585
  290EC       O 4083   3.690   3.490   1.605
  290EC       C 4084   3.558   3.449   1.581
  290EC       C 4085   3.479   3.574   1.608
  290EC       O 4086   3.569   3.677   1.570
  290EC       H 4087   3.550   3.418   1.476
  290EC       H 4088   3.529   3.367   1.646
  290EC       H 4089   3.455   3.585   1.714
  290EC       H 4090   3.387   3.580   1.550
  291EC       O 4091   2.485   2.688   0.969
  291EC       C 4092   2.588   2.750   0.946
  291EC       O 4093   2.686   2.709   0.861
  291EC       C 4094   2.796   2.795   0.881
  291EC       C 4095   2.732   2.919   0.934
  291EC       O 4096   2.619   2.870   1.004
  291EC       H 4097   2.863   2.749   0.955
  291EC       H 4098   2.851   2.812   0.789
  291EC       H 4099   2.697   2.985   0.853
  291EC       H 4100   2.797   2.977   1.000
  292EC       O 4101   3.199   1.052   2.267
  292EC       C 4102   3.233   1.018   2.155
  292EC       O 4103   3.197   1.081   2.040
  292EC       C 4104   3.235   0.998   1.934
  292EC       C 4105   3.349   0.919   1.992
  292EC       O 4106   3.313   0.910   2.130
  292EC       H 4107   3.150   0.934   1.907
  292EC       H 4108   3.266   1.055   1.847
  292EC       H 4109   3.444   0.972   1.984
  292EC       H 4110   3.359   0.820   1.948
  293EC       O 4111   4.000   3.616   0.179
  293EC       C 4112   3.881   3.602   0.203
  293EC       O 4113   3.788   3.702   0.198
  293EC       C 4114   3.671   3.651   0.256
  293EC       C 4115   3.685   3.503   0.235
  293EC       O 4116   3.825   3.483   0.241
  293EC       H 4117   3.670   3.678   0.362
  293EC       H 4118   3.582   3.691   0.208
  293EC       H 4119   3.648   3.472   0.137
  293EC       H 4120   3.634   3.444   0.312
  294EC       O 4121   0.286   3.710   1.197
  294EC       C 4122   0.307   3.646   1.299
  294EC       O 4123   0.360   3.520   1.302
  294EC       C 4124   0.344   3.472   1.433
  294EC       C 4125   0.340   3.598   1.514
  294EC       O 4126   0.279   3.691   1.425
  294EC       H 4127   0.251   3.416   1.439
  294EC       H 4128   0.427   3.407   1.462
  294EC       H 4129   0.440   3.634   1.539
  294EC       H 4130   0.281   3.588   1.606
  295EC       O 4131   1.139   1.600   1.765
  295EC       C 4132   1.255   1.599   1.801
  295EC       O 4133   1.299   1.551   1.921
  295EC       C 4134   1.433   1.590   1.934
  295EC       C 4135   1.477   1.607   1.792
  295EC       O 4136   1.359   1.649   1.727
  295EC       H 4137   1.436   1.685   1.990
  295EC       H 4138   1.492   1.516   1.987
  295EC       H 4139   1.511   1.513   1.748
  295EC       H 4140   1.556   1.682   1.781
  296EC       O 4141   1.947   0.434   3.567
  296EC       C 4142   2.025   0.350   3.610
  296EC       O 4143   2.143   0.317   3.551
  296EC       C 4144   2.190   0.201   3.616
  296EC       C 4145   2.127   0.212   3.751
  296EC       O 4146   2.004   0.278   3.724
  296EC       H 4147   2.155   0.113   3.560
  296EC       H 4148   2.299   0.200   3.621
  296EC       H 4149   2.186   0.273   3.820
  296EC       H 4150   2.109   0.114   3.798
  297EC       O 4151   2.234   0.445   2.625
  297EC       C 4152   2.131   0.509   2.637
  297EC       O 4153   2.006   0.456   2.642
  297EC       C 4154   1.915   0.563   2.631
  297EC       C 4155   1.994   0.679   2.683
  297EC       O 4156   2.127   0.646   2.646
  297EC       H 4157   1.889   0.575   2.525
  297EC       H 4158   1.825   0.545   2.689
  297EC       H 4159   1.989   0.687   2.792
  297EC       H 4160   1.964   0.775   2.639
  298EC       O 4161   2.742   2.953   1.520
  298EC       C 4162   2.837   2.986   1.589
  298EC       O 4163   2.967   2.955   1.563
  298EC       C 4164   3.041   2.989   1.678
  298EC       C 4165   2.957   3.096   1.741
  298EC       O 4166   2.825   3.058   1.705
  298EC       H 4167   3.049   2.900   1.741
  298EC       H 4168   3.141   3.025   1.652
  298EC       H 4169   2.978   3.195   1.699
  298EC       H 4170   2.968   3.100   1.850
  299EC       O 4171   1.132   1.607   3.503
  299EC       C 4172   1.139   1.610   3.625
  299EC       O 4173   1.236   1.550   3.699
  299EC       C 4174   1.195   1.556   3.834
  299EC       C 4175   1.104   1.675   3.835
  299EC       O 4176   1.048   1.674   3.705
  299EC       H 4177   1.141   1.463   3.858
  299EC       H 4178   1.279   1.568   3.901
  299EC       H 4179   1.159   1.769   3.849
  299EC       H 4180   1.026   1.669   3.911
  300EC       O 4181   2.372   3.525   3.463
  300EC       C 4182   2.490   3.525   3.433
  300EC       O 4183   2.558   3.418   3.381
  300EC       C 4184   2.694   3.451   3.385
  300EC       C 4185   2.693   3.600   3.382
  300EC       O 4186   2.573   3.633   3.450
  300EC       H 4187   2.737   3.412   3.478
  300EC       H 4188   2.748   3.408   3.301
  300EC       H 4189   2.688   3.639   3.280
  300EC       H 4190   2.780   3.645   3.433
  301EC       O 4191   0.497   0.912   3.530
  301EC       C 4192   0.552   0.838   3.451
  301EC       O 4193   0.686   0.838   3.424
  301EC       C 4194   0.704   0.757   3.310
  301EC       C 4195   0.587   0.664   3.316
  301EC       O 4196   0.486   0.744   3.376
  301EC       H 4197   0.703   0.821   3.221
  301EC       H 4198   0.799   0.704   3.314
  301EC       H 4199   0.606   0.578   3.380
  301EC       H 4200   0.555   0.629   3.217
  302EC       O 4201   1.382   1.434   1.589
  302EC       C 4202   1.326   1.327   1.577
  302EC       O 4203   1.389   1.206   1.573
  302EC       C 4204   1.293   1.111   1.535
  302EC       C 4205   1.164   1.173   1.581
  302EC       O 4206   1.190   1.312   1.567
  302EC       H 4207   1.296   1.099   1.426
  302EC       H 4208   1.311   1.014   1.582
  302EC       H 4209   1.144   1.151   1.686
  302EC       H 4210   1.078   1.143   1.520
  303EC       O 4211   2.592   0.631   1.571
  303EC       C 4212   2.702   0.678   1.549
  303EC       O 4213   2.818   0.631   1.603
  303EC       C 4214   2.918   0.725   1.573
  303EC       C 4215   2.866   0.792   1.450
  303EC       O 4216   2.725   0.786   1.468
  303EC       H 4217   2.926   0.795   1.658
  303EC       H 4218   3.015   0.678   1.557
  303EC       H 4219   2.892   0.737   1.359
  303EC       H 4220   2.899   0.896   1.440
  304EC       O 4221   0.536   0.583   0.970
  304EC       C 4222   0.467   0.510   1.040
  304EC       O 4223   0.371   0.553   1.126
  304EC       C 4224   0.333   0.442   1.204
  304EC       C 4225   0.366   0.326   1.116
  304EC       O 4226   0.478   0.373   1.042
  304EC       H 4227   0.393   0.443   1.296
  304EC       H 4228   0.228   0.445   1.230
  304EC       H 4229   0.285   0.303   1.046
  304EC       H 4230   0.392   0.236   1.171
  305EC       O 4231   2.594   1.261   0.436
  305EC       C 4232   2.570   1.190   0.532
  305EC       O 4233   2.656   1.097   0.583
  305EC       C 4234   2.582   1.020   0.676
  305EC       C 4235   2.474   1.114   0.718
  305EC       O 4236   2.452   1.193   0.602
  305EC       H 4237   2.543   0.932   0.624
  305EC       H 4238   2.644   0.988   0.759
  305EC       H 4239   2.506   1.180   0.800
  305EC       H 4240   2.382   1.063   0.748
  306EC       O 4241   0.447   1.666   1.804
  306EC       C 4242   0.469   1.703   1.919
  306EC       O 4243   0.507   1.621   2.021
  306EC       C 4244   0.499   1.696   2.139
  306EC       C 4245   0.516   1.837   2.090
  306EC       O 4246   0.459   1.833   1.960
  306EC       H 4247   0.400   1.680   2.184
  306EC       H 4248   0.576   1.668   2.211
  306EC       H 4249   0.622   1.864   2.081
  306EC       H 4250   0.465   1.911   2.153
  307EC       O 4251   0.656   0.332   0.421
  307EC       C 4252   0.677   0.452   0.420
  307EC       O 4253   0.800   0.510   0.413
  307EC       C 4254   0.783   0.647   0.440
  307EC       C 4255   0.641   0.671   0.400
  307EC       O 4256   0.578   0.547   0.428
  307EC       H 4257   0.800   0.663   0.547
  307EC       H 4258   0.853   0.708   0.383
  307EC       H 4259   0.631   0.692   0.293
  307EC       H 4260   0.594   0.752   0.457
  308EC       O 4261   1.102   3.854   0.778
  308EC       C 4262   1.027   3.861   0.875
  308EC       O 4263   1.014   3.764   0.970
  308EC       C 4264   0.903   3.799   1.048
  308EC       C 4265   0.895   3.947   1.031
  308EC       O 4266   0.945   3.967   0.900
  308EC       H 4267   0.815   3.748   1.007
  308EC       H 4268   0.916   3.770   1.152
  308EC       H 4269   0.960   4.000   1.102
  308EC       H 4270   0.793   3.986   1.040
  309EC       O 4271   1.251   1.973   0.650
  309EC       C 4272   1.131   1.992   0.664
  309EC       O 4273   1.039   1.895   0.689
  309EC       C 4274   0.912   1.954   0.674
  309EC       C 4275   0.939   2.099   0.702
  309EC       O 4276   1.072   2.116   0.655
  309EC       H 4277   0.878   1.937   0.571
  309EC       H 4278   0.839   1.912   0.743
  309EC       H 4279   0.936   2.121   0.809
  309EC       H 4280   0.871   2.166   0.649
  310EC       O 4281   1.284   2.678   3.101
  310EC       C 4282   1.364   2.586   3.100
  310EC       O 4283   1.386   2.500   3.204
  310EC       C 4284   1.501   2.426   3.172
  310EC       C 4285   1.503   2.431   3.022
  310EC       O 4286   1.444   2.557   2.993
  310EC       H 4287   1.588   2.476   3.216
  310EC       H 4288   1.495   2.324   3.210
  310EC       H 4289   1.441   2.352   2.978
  310EC       H 4290   1.604   2.425   2.981
  311EC       O 4291   1.692   2.364   1.408
  311EC       C 4292   1.755   2.467   1.431
  311EC       O 4293   1.701   2.582   1.478
  311EC       C 4294   1.800   2.681   1.467
  311EC       C 4295   1.927   2.602   1.471
  311EC       O 4296   1.890   2.479   1.410
  311EC       H 4297   1.787   2.733   1.371
  311EC       H 4298   1.794   2.754   1.548
  311EC       H 4299   1.960   2.582   1.574
  311EC       H 4300   2.009   2.649   1.416
  312EC       O 4301   1.937   1.890   1.249
  312EC       C 4302   2.005   1.842   1.338
  312EC       O 4303   2.022   1.897   1.462
  312EC       C 4304   2.126   1.826   1.524
  312EC       C 4305   2.122   1.693   1.455
  312EC       O 4306   2.077   1.726   1.325
  312EC       H 4307   2.220   1.879   1.506
  312EC       H 4308   2.110   1.818   1.632
  312EC       H 4309   2.049   1.625   1.502
  312EC       H 4310   2.219   1.644   1.452
  313EC       O 4311   3.055   2.075   3.774
  313EC       C 4312   3.049   2.196   3.789
  313EC       O 4313   2.936   2.264   3.824
  313EC       C 4314   2.964   2.401   3.807
  313EC       C 4315   3.113   2.407   3.823
  313EC       O 4316   3.155   2.281   3.773
  313EC       H 4317   2.932   2.431   3.707
  313EC       H 4318   2.912   2.462   3.881
  313EC       H 4319   3.142   2.414   3.928
  313EC       H 4320   3.159   2.488   3.767
  314EC       O 4321   2.119   3.291   3.742
  314EC       C 4322   2.201   3.382   3.746
  314EC       O 4323   2.335   3.366   3.727
  314EC       C 4324   2.396   3.487   3.764
  314EC       C 4325   2.287   3.587   3.743
  314EC       O 4326   2.170   3.512   3.771
  314EC       H 4327   2.427   3.480   3.869
  314EC       H 4328   2.484   3.508   3.703
  314EC       H 4329   2.283   3.622   3.639
  314EC       H 4330   2.295   3.674   3.810
  315EC       O 4331   3.528   2.446   1.707
  315EC       C 4332   3.551   2.514   1.608
  315EC       O 4333   3.465   2.532   1.504
  315EC       C 4334   3.537   2.594   1.401
  315EC       C 4335   3.646   2.665   1.475
  315EC       O 4336   3.669   2.580   1.587
  315EC       H 4337   3.576   2.516   1.334
  315EC       H 4338   3.475   2.663   1.344
  315EC       H 4339   3.615   2.763   1.510
  315EC       H 4340   3.738   2.676   1.415
  316EC       O 4341   3.978   1.531   0.944
  316EC       C 4342   3.928   1.421   0.926
  316EC       O 4343   3.794   1.395   0.929
  316EC       C 4344   3.780   1.255   0.929
  316EC       C 4345   3.905   1.209   0.862
  316EC       O 4346   4.000   1.307   0.901
  316EC       H 4347   3.773   1.221   1.032
  316EC       H 4348   3.690   1.225   0.874
  316EC       H 4349   3.897   1.210   0.753
  316EC       H 4350   3.937   1.110   0.895
  317EC       O 4351   3.750   0.100   1.520
  317EC       C 4352   3.708   0.209   1.554
  317EC       O 4353   3.577   0.238   1.577
  317EC       C 4354   3.567   0.378   1.591
  317EC       C 4355   3.705   0.416   1.637
  317EC       O 4356   3.787   0.319   1.574
  317EC       H 4357   3.543   0.420   1.493
  317EC       H 4358   3.490   0.406   1.662
  317EC       H 4359   3.715   0.407   1.745
  317EC       H 4360   3.734   0.517   1.606
  318EC       O 4361   2.740   2.522   2.458
  318EC       C 4362   2.828   2.601   2.430
  318EC       O 4363   2.813   2.736   2.425
  318EC       C 4364   2.929   2.789   2.365
  318EC       C 4365   3.032   2.685   2.397
  318EC       O 4366   2.956   2.564   2.398
  318EC       H 4367   2.911   2.798   2.258
  318EC       H 4368   2.955   2.886   2.406
  318EC       H 4369   3.077   2.700   2.495
  318EC       H 4370   3.111   2.679   2.322
  319EC       O 4371   1.782   1.441   1.514
  319EC       C 4372   1.868   1.362   1.549
  319EC       O 4373   1.887   1.238   1.495
  319EC       C 4374   1.978   1.171   1.578
  319EC       C 4375   2.055   1.283   1.641
  319EC       O 4376   1.958   1.387   1.649
  319EC       H 4377   1.921   1.112   1.651
  319EC       H 4378   2.043   1.104   1.521
  319EC       H 4379   2.138   1.316   1.579
  319EC       H 4380   2.092   1.258   1.741
  320EC       O 4381   1.047   3.248   2.548
  320EC       C 4382   1.105   3.330   2.617
  320EC       O 4383   1.172   3.300   2.732
  320EC       C 4384   1.203   3.422   2.794
  320EC       C 4385   1.206   3.518   2.679
  320EC       O 4386   1.110   3.464   2.590
  320EC       H 4387   1.123   3.446   2.865
  320EC       H 4388   1.298   3.418   2.847
  320EC       H 4389   1.304   3.519   2.630
  320EC       H 4390   1.179   3.620   2.707
  321EC       O 4391   1.510   1.907   1.453
  321EC       C 4392   1.442   1.858   1.365
  321EC       O 4393   1.314   1.813   1.381
  321EC       C 4394   1.280   1.743   1.264
  321EC       C 4395   1.368   1.805   1.161
  321EC       O 4396   1.484   1.841   1.236
  321EC       H 4397   1.302   1.637   1.280
  321EC       H 4398   1.174   1.755   1.240
  321EC       H 4399   1.325   1.896   1.119
  321EC       H 4400   1.394   1.737   1.080
  322EC       O 4401   2.520   3.569   1.858
  322EC       C 4402   2.542   3.454   1.893
  322EC       O 4403   2.468   3.346   1.858
  322EC       C 4404   2.512   3.238   1.938
  322EC       C 4405   2.653   3.277   1.971
  322EC       O 4406   2.647   3.419   1.974
  322EC       H 4407   2.448   3.234   2.028
  322EC       H 4408   2.506   3.144   1.885
  322EC       H 4409   2.723   3.246   1.893
  322EC       H 4410   2.687   3.237   2.067
  323EC       O 4411   2.011   2.928   3.698
  323EC       C 4412   1.974   2.840   3.774
  323EC       O 4413   1.844   2.808   3.799
  323EC       C 4414   1.844   2.720   3.909
  323EC       C 4415   1.979   2.657   3.901
  323EC       O 4416   2.060   2.761   3.846
  323EC       H 4417   1.830   2.779   4.000
  323EC       H 4418   1.764   2.647   3.901
  323EC       H 4419   1.981   2.571   3.833
  323EC       H 4420   2.018   2.626   3.999
  324EC       O 4421   3.655   2.413   2.284
  324EC       C 4422   3.660   2.434   2.404
  324EC       O 4423   3.750   2.376   2.489
  324EC       C 4424   3.707   2.406   2.620
  324EC       C 4425   3.630   2.533   2.601
  324EC       O 4426   3.576   2.518   2.471
  324EC       H 4427   3.644   2.324   2.656
  324EC       H 4428   3.792   2.419   2.688
  324EC       H 4429   3.695   2.621   2.603
  324EC       H 4430   3.551   2.546   2.676
  325EC       O 4431   3.854   0.823   2.347
  325EC       C 4432   3.799   0.912   2.285
  325EC       O 4433   3.760   1.031   2.339
  325EC       C 4434   3.679   1.094   2.243
  325EC       C 4435   3.727   1.035   2.114
  325EC       O 4436   3.767   0.904   2.152
  325EC       H 4437   3.574   1.069   2.263
  325EC       H 4438   3.691   1.203   2.245
  325EC       H 4439   3.814   1.088   2.074
  325EC       H 4440   3.650   1.031   2.037
  326EC       O 4441   1.462   3.197   2.110
  326EC       C 4442   1.435   3.099   2.043
  326EC       O 4443   1.359   3.101   1.930
  326EC       C 4444   1.332   2.967   1.898
  326EC       C 4445   1.446   2.893   1.960
  326EC       O 4446   1.477   2.972   2.073
  326EC       H 4447   1.236   2.939   1.942
  326EC       H 4448   1.327   2.952   1.790
  326EC       H 4449   1.534   2.890   1.894
  326EC       H 4450   1.420   2.791   1.990
  327EC       O 4451   1.264   1.324   0.734
  327EC       C 4452   1.163   1.370   0.786
  327EC       O 4453   1.046   1.302   0.802
  327EC       C 4454   0.950   1.396   0.842
  327EC       C 4455   1.032   1.503   0.907
  327EC       O 4456   1.154   1.498   0.834
  327EC       H 4457   0.898   1.433   0.752
  327EC       H 4458   0.877   1.353   0.910
  327EC       H 4459   1.052   1.481   1.012
  327EC       H 4460   0.987   1.602   0.900
  328EC       O 4461   3.920   3.027   2.942
  328EC       C 4462   3.910   2.924   3.007
  328EC       O 4463   3.875   2.918   3.138
  328EC       C 4464   3.900   2.786   3.181
  328EC       C 4465   3.890   2.707   3.054
  328EC       O 4466   3.936   2.799   2.956
  328EC       H 4467   4.000   2.783   3.225
  328EC       H 4468   3.827   2.754   3.255
  328EC       H 4469   3.787   2.679   3.031
  328EC       H 4470   3.953   2.617   3.055
  329EC       O 4471   3.521   0.648   2.728
  329EC       C 4472   3.403   0.650   2.759
  329EC       O 4473   3.353   0.601   2.876
  329EC       C 4474   3.213   0.600   2.863
  329EC       C 4475   3.188   0.707   2.762
  329EC       O 4476   3.304   0.701   2.680
  329EC       H 4477   3.183   0.501   2.828
  329EC       H 4478   3.164   0.620   2.958
  329EC       H 4479   3.182   0.806   2.808
  329EC       H 4480   3.098   0.689   2.703
  330EC       O 4481   0.146   1.245   1.001
  330EC       C 4482   0.197   1.323   0.922
  330EC       O 4483   0.154   1.451   0.901
  330EC       C 4484   0.222   1.498   0.787
  330EC       C 4485   0.346   1.415   0.786
  330EC       O 4486   0.304   1.292   0.843
  330EC       H 4487   0.159   1.479   0.699
  330EC       H 4488   0.243   1.604   0.794
  330EC       H 4489   0.425   1.458   0.849
  330EC       H 4490   0.386   1.399   0.685
  331EC       O 4491   3.372   3.081   1.942
  331EC       C 4492   3.482   3.058   1.988
  331EC       O 4493   3.573   3.153   2.024
  331EC       C 4494   3.695   3.086   2.048
  331EC       C 4495   3.650   2.948   2.084
  331EC       O 4496   3.531   2.932   2.008
  331EC       H 4497   3.754   3.088   1.956
  331EC       H 4498   3.751   3.134   2.128
  331EC       H 4499   3.626   2.939   2.191
  331EC       H 4500   3.724   2.871   2.058
  332EC       O 4501   2.545   1.641   0.363
  332EC       C 4502   2.642   1.715   0.361
  332EC       O 4503   2.695   1.770   0.248
  332EC       C 4504   2.819   1.826   0.284
  332EC       C 4505   2.801   1.855   0.430
  332EC       O 4506   2.713   1.751   0.472
  332EC       H 4507   2.897   1.752   0.265
  332EC       H 4508   2.840   1.917   0.227
  332EC       H 4509   2.753   1.951   0.447
  332EC       H 4510   2.895   1.851   0.486
  333EC       O 4511   3.414   1.731   1.036
  333EC       C 4512   3.515   1.796   1.013
  333EC       O 4513   3.525   1.895   0.920
  333EC       C 4514   3.661   1.926   0.908
  333EC       C 4515   3.716   1.886   1.041
  333EC       O 4516   3.634   1.777   1.078
  333EC       H 4517   3.704   1.866   0.826
  333EC       H 4518   3.677   2.032   0.887
  333EC       H 4519   3.706   1.965   1.116
  333EC       H 4520   3.821   1.855   1.037
  334EC       O 4521   1.882   2.458   2.166
  334EC       C 4522   1.775   2.415   2.208
  334EC       O 4523   1.654   2.474   2.188
  334EC       C 4524   1.562   2.408   2.271
  334EC       C 4525   1.624   2.273   2.290
  334EC       O 4526   1.764   2.301   2.283
  334EC       H 4527   1.556   2.464   2.366
  334EC       H 4528   1.464   2.402   2.226
  334EC       H 4529   1.598   2.205   2.209
  334EC       H 4530   1.599   2.227   2.385
  335EC       O 4531   2.664   1.954   4.000
  335EC       C 4532   2.667   1.842   3.953
  335EC       O 4533   2.578   1.793   3.863
  335EC       C 4534   2.600   1.654   3.853
  335EC       C 4535   2.744   1.642   3.893
  335EC       O 4536   2.761   1.748   3.986
  335EC       H 4537   2.533   1.603   3.923
  335EC       H 4538   2.582   1.617   3.753
  335EC       H 4539   2.812   1.657   3.809
  335EC       H 4540   2.767   1.545   3.940
  336EC       O 4541   0.254   3.810   0.914
  336EC       C 4542   0.345   3.730   0.926
  336EC       O 4543   0.339   3.600   0.887
  336EC       C 4544   0.453   3.536   0.940
  336EC       C 4545   0.550   3.649   0.956
  336EC       O 4546   0.466   3.760   0.983
  336EC       H 4547   0.425   3.492   1.036
  336EC       H 4548   0.490   3.458   0.874
  336EC       H 4549   0.606   3.668   0.864
  336EC       H 4550   0.621   3.633   1.038
  337EC       O 4551   1.655   0.403   1.699
  337EC       C 4552   1.737   0.476   1.751
  337EC       O 4553   1.710   0.564   1.851
  337EC       C 4554   1.823   0.647   1.866
  337EC       C 4555   1.934   0.560   1.814
  337EC       O 4556   1.869   0.482   1.715
  337EC       H 4557   1.809   0.736   1.804
  337EC       H 4558   1.839   0.676   1.969
  337EC       H 4559   1.973   0.494   1.891
  337EC       H 4560   2.016   0.618   1.770
  338EC       O 4561   2.655   3.706   3.953
  338EC       C 4562   2.762   3.689   3.897
  338EC       O 4563   2.800   3.752   3.782
  338EC       C 4564   2.917   3.687   3.737
  338EC       C 4565   2.974   3.631   3.863
  338EC       O 4566   2.859   3.603   3.941
  338EC       H 4567   2.888   3.609   3.665
  338EC       H 4568   2.985   3.757   3.688
  338EC       H 4569   3.036   3.703   3.916
  338EC       H 4570   3.033   3.540   3.846
  339EC       O 4571   3.030   2.900   2.842
  339EC       C 4572   3.132   2.833   2.853
  339EC       O 4573   3.229   2.855   2.947
  339EC       C 4574   3.339   2.775   2.911
  339EC       C 4575   3.276   2.665   2.832
  339EC       O 4576   3.165   2.729   2.771
  339EC       H 4577   3.407   2.836   2.850
  339EC       H 4578   3.392   2.738   2.999
  339EC       H 4579   3.240   2.584   2.896
  339EC       H 4580   3.343   2.623   2.756
  340EC       O 4581   0.467   3.995   3.720
  340EC       C 4582   0.539   3.914   3.665
  340EC       O 4583   0.639   3.945   3.577
  340EC       C 4584   0.680   3.824   3.518
  340EC       C 4585   0.644   3.722   3.621
  340EC       O 4586   0.529   3.778   3.682
  340EC       H 4587   0.624   3.811   3.425
  340EC       H 4588   0.787   3.825   3.496
  340EC       H 4589   0.722   3.711   3.697
  340EC       H 4590   0.621   3.624   3.578
  341PF6      F 4591   3.457   1.756   2.748
  341PF6      P 4592   3.571   1.782   2.861
  341PF6      F 4593   3.685   1.790   2.745
  341PF6      F 4594   3.547   1.943   2.850
  341PF6      F 4595   3.685   1.807   2.975
  341PF6      F 4596   3.457   1.773   2.978
  341PF6      F 4597   3.595   1.621   2.873
  342PF6      F 4598   1.941   1.091   2.520
  342PF6      P 4599   1.848   1.221   2.487
  342PF6      F 4600   1.974   1.319   2.515
  342PF6      F 4601   1.890   1.211   2.330
  342PF6      F 4602   1.754   1.350   2.453
  342PF6      F 4603   1.721   1.122   2.458
  342PF6      F 4604   1.805   1.230   2.644
  343PF6      F 4605   1.806   2.757   1.919
  343PF6      P 4606   1.932   2.686   1.844
  343PF6      F 4607   1.828   2.596   1.756
  343PF6      F 4608   1.928   2.802   1.729
  343PF6      F 4609   2.058   2.615   1.768
  343PF6      F 4610   2.036   2.776   1.931
  343PF6      F 4611   1.936   2.570   1.958
  344PF6      F 4612   1.354   3.310   2.266
  344PF6      P 4613   1.349   3.172   2.354
  344PF6      F 4614   1.393   3.256   2.487
  344PF6      F 4615   1.192   3.200   2.388
  344PF6      F 4616   1.344   3.035   2.441
  344PF6      F 4617   1.306   3.089   2.221
  344PF6      F 4618   1.506   3.145   2.319
  345PF6      F 4619   1.428   0.419   1.839
  345PF6      P 4620   1.425   0.418   2.002
  345PF6      F 4621   1.353   0.564   2.002
  345PF6      F 4622   1.278   0.346   1.999
  345PF6      F 4623   1.422   0.416   2.165
  345PF6      F 4624   1.497   0.271   2.002
  345PF6      F 4625   1.571   0.490   2.005
  346PF6      F 4626   0.135   0.733   3.690
  346PF6      P 4627   0.295   0.708   3.668
  346PF6      F 4628   0.316   0.869   3.648
  346PF6      F 4629   0.319   0.726   3.829
  346PF6      F 4630   0.454   0.684   3.647
  346PF6      F 4631   0.273   0.548   3.689
  346PF6      F 4632   0.270   0.691   3.508
  347PF6      F 4633   3.399   0.476   0.771
  347PF6      P 4634   3.335   0.625   0.753
  347PF6      F 4635   3.358   0.615   0.592
  347PF6      F 4636   3.187   0.559   0.735
  347PF6      F 4637   3.271   0.774   0.734
  347PF6      F 4638   3.311   0.635   0.914
  347PF6      F 4639   3.483   0.691   0.770
  348PF6      F 4640   3.837   0.408   3.608
  348PF6      P 4641   3.723   0.521   3.578
  348PF6      F 4642   3.834   0.638   3.597
  348PF6      F 4643   3.758   0.513   3.419
  348PF6      F 4644   3.609   0.633   3.548
  348PF6      F 4645   3.612   0.403   3.559
  348PF6      F 4646   3.688   0.528   3.737
  349PF6      F 4647   0.481   3.084   0.714
  349PF6      P 4648   0.470   3.093   0.877
  349PF6      F 4649   0.320   3.157   0.863
  349PF6      F 4650   0.405   2.943   0.880
  349PF6      F 4651   0.458   3.101   1.039
  349PF6      F 4652   0.619   3.029   0.890
  349PF6      F 4653   0.534   3.243   0.873
  350PF6      F 4654   2.324   1.721   1.629
  350PF6      P 4655   2.476   1.768   1.594
  350PF6      F 4656   2.425   1.824   1.449
  350PF6      F 4657   2.446   1.914   1.660
  350PF6      F 4658   2.628   1.815   1.558
  350PF6      F 4659   2.526   1.713   1.738
  350PF6      F 4660   2.505   1.622   1.527
  351PF6      F 4661   1.751   3.563   3.072
  351PF6      P 4662   1.864   3.465   3.136
  351PF6      F 4663   1.839   3.532   3.282
  351PF6      F 4664   1.749   3.354   3.167
  351PF6      F 4665   1.976   3.366   3.200
  351PF6      F 4666   1.888   3.398   2.989
  351PF6      F 4667   1.979   3.576   3.104
  352PF6      F 4668   0.621   0.634   2.610
  352PF6      P 4669   0.743   0.552   2.539
  352PF6      F 4670   0.791   0.497   2.684
  352PF6      F 4671   0.645   0.422   2.522
  352PF6      F 4672   0.864   0.470   2.467
  352PF6      F 4673   0.694   0.607   2.393
  352PF6      F 4674   0.840   0.681   2.555
  353PF6      F 4675   0.877   0.356   3.453
  353PF6      P 4676   0.955   0.259   3.557
  353PF6      F 4677   0.912   0.356   3.681
  353PF6      F 4678   0.819   0.172   3.578
  353PF6      F 4679   1.033   0.161   3.662
  353PF6      F 4680   0.999   0.162   3.434
  353PF6      F 4681   1.091   0.346   3.537
  354PF6      F 4682   2.725   2.678   3.408
  354PF6      P 4683   2.796   2.646   3.265
  354PF6      F 4684   2.664   2.563   3.218
  354PF6      F 4685   2.732   2.782   3.203
  354PF6      F 4686   2.867   2.614   3.122
  354PF6      F 4687   2.928   2.729   3.312
  354PF6      F 4688   2.859   2.509   3.327
  355PF6      F 4689   2.779   0.421   3.607
  355PF6      P 4690   2.619   0.451   3.610
  355PF6      F 4691   2.642   0.560   3.730
  355PF6      F 4692   2.639   0.570   3.500
  355PF6      F 4693   2.459   0.482   3.614
  355PF6      F 4694   2.595   0.343   3.491
  355PF6      F 4695   2.598   0.333   3.721
  356PF6      F 4696   3.136   3.216   1.545
  356PF6      P 4697   3.218   3.322   1.638
  356PF6      F 4698   3.183   3.233   1.770
  356PF6      F 4699   3.354   3.236   1.615
  356PF6      F 4700   3.300   3.428   1.731
  356PF6      F 4701   3.252   3.411   1.506
  356PF6      F 4702   3.081   3.409   1.660
  357PF6      F 4703   2.496   3.555   0.204
  357PF6      P 4704   2.444   3.647   0.328
  357PF6      F 4705   2.595   3.646   0.391
  357PF6      F 4706   2.480   3.781   0.243
  357PF6      F 4707   2.392   3.739   0.452
  357PF6      F 4708   2.294   3.647   0.265
  357PF6      F 4709   2.408   3.512   0.413
  358PF6      F 4710   1.388   3.529   0.506
  358PF6      P 4711   1.299   3.645   0.436
  358PF6      F 4712   1.393   3.759   0.505
  358PF6      F 4713   1.398   3.643   0.306
  358PF6      F 4714   1.210   3.762   0.365
  358PF6      F 4715   1.205   3.532   0.366
  358PF6      F 4716   1.200   3.648   0.565
  359PF6      F 4717   2.791   3.456   3.045
  359PF6      P 4718   2.925   3.547   3.066
  359PF6      F 4719   2.955   3.540   2.906
  359PF6      F 4720   2.838   3.682   3.045
  359PF6      F 4721   3.060   3.637   3.088
  359PF6      F 4722   2.896   3.553   3.227
  359PF6      F 4723   3.013   3.411   3.088
  360PF6      F 4724   2.932   0.350   2.362
  360PF6      P 4725   2.834   0.250   2.446
  360PF6      F 4726   2.937   0.127   2.421
  360PF6      F 4727   2.912   0.288   2.583
  360PF6      F 4728   2.736   0.150   2.530
  360PF6      F 4729   2.730   0.373   2.471
  360PF6      F 4730   2.755   0.212   2.308
  361PF6      F 4731   2.716   0.323   0.483
  361PF6      P 4732   2.714   0.323   0.320
  361PF6      F 4733   2.588   0.426   0.322
  361PF6      F 4734   2.817   0.449   0.320
  361PF6      F 4735   2.712   0.323   0.157
  361PF6      F 4736   2.840   0.220   0.319
  361PF6      F 4737   2.611   0.197   0.321
  362PF6      F 4738   1.766   2.903   3.592
  362PF6      P 4739   1.638   2.983   3.651
  362PF6      F 4740   1.701   2.975   3.801
  362PF6      F 4741   1.715   3.125   3.626
  362PF6      F 4742   1.509   3.064   3.710
  362PF6      F 4743   1.574   2.991   3.501
  362PF6      F 4744   1.560   2.842   3.677
  363PF6      F 4745   2.214   1.283   3.278
  363PF6      P 4746   2.357   1.217   3.237
  363PF6      F 4747   2.427   1.364   3.242
  363PF6      F 4748   2.393   1.196   3.395
  363PF6      F 4749   2.501   1.151   3.196
  363PF6      F 4750   2.288   1.069   3.233
  363PF6      F 4751   2.322   1.238   3.079
  364PF6      F 4752   0.468   2.452   3.796
  364PF6      P 4753   0.445   2.487   3.638
  364PF6      F 4754   0.405   2.640   3.678
  364PF6      F 4755   0.602   2.532   3.625
  364PF6      F 4756   0.423   2.522   3.480
  364PF6      F 4757   0.486   2.334   3.598
  364PF6      F 4758   0.289   2.443   3.651
  365PF6      F 4759   2.954   2.516   0.111
  365PF6      P 4760   2.951   2.641   0.215
  365PF6      F 4761   2.822   2.703   0.137
  365PF6      F 4762   2.852   2.558   0.313
  365PF6      F 4763   2.948   2.767   0.319
  365PF6      F 4764   3.080   2.579   0.293
  365PF6      F 4765   3.050   2.725   0.116
  366PF6      F 4766   3.259   2.800   0.738
  366PF6      P 4767   3.237   2.664   0.825
  366PF6      F 4768   3.100   2.726   0.888
  366PF6      F 4769   3.151   2.600   0.702
  366PF6      F 4770   3.215   2.528   0.912
  366PF6      F 4771   3.374   2.602   0.762
  366PF6      F 4772   3.322   2.729   0.948
  367PF6      F 4773   3.237   3.361   3.878
  367PF6      P 4774   3.136   3.255   3.806
  367PF6      F 4775   3.104   3.366   3.690
  367PF6      F 4776   3.260   3.198   3.717
  367PF6      F 4777   3.035   3.150   3.734
  367PF6      F 4778   3.169   3.145   3.922
  367PF6      F 4779   3.012   3.313   3.895
  368PF6      F 4780   2.701   1.968   0.815
  368PF6      P 4781   2.832   2.051   0.764
  368PF6      F 4782   2.756   2.087   0.625
  368PF6      F 4783   2.772   2.186   0.832
  368PF6      F 4784   2.963   2.134   0.714
  368PF6      F 4785   2.908   2.015   0.904
  368PF6      F 4786   2.892   1.915   0.697
  369PF6      F 4787   0.884   2.857   2.933
  369PF6      P 4788   0.854   2.853   2.773
  369PF6      F 4789   0.858   3.016   2.769
  369PF6      F 4790   1.014   2.848   2.743
  369PF6      F 4791   0.823   2.850   2.613
  369PF6      F 4792   0.849   2.690   2.778
  369PF6      F 4793   0.693   2.858   2.804
  370PF6      F 4794   2.083   1.385   0.590
  370PF6      P 4795   2.090   1.223   0.598
  370PF6      F 4796   1.941   1.213   0.533
  370PF6      F 4797   2.155   1.218   0.449
  370PF6      F 4798   2.097   1.060   0.606
  370PF6      F 4799   2.239   1.232   0.663
  370PF6      F 4800   2.025   1.227   0.747
  371PF6      F 4801   0.509   2.215   0.730
  371PF6      P 4802   0.632   2.293   0.805
  371PF6      F 4803   0.696   2.331   0.660
  371PF6      F 4804   0.545   2.431   0.803
  371PF6      F 4805   0.754   2.370   0.879
  371PF6      F 4806   0.567   2.255   0.949
  371PF6      F 4807   0.718   2.155   0.807
  372PF6      F 4808   1.762   3.766   1.474
  372PF6      P 4809   1.766   3.885   1.586
  372PF6      F 4810   1.864   3.973   1.489
  372PF6      F 4811   1.636   3.955   1.517
  372PF6      F 4812   1.771   4.003   1.698
  372PF6      F 4813   1.669   3.797   1.683
  372PF6      F 4814   1.897   3.815   1.655
  373PF6      F 4815   1.840   2.665   3.390
  373PF6      P 4816   1.940   2.668   3.518
  373PF6      F 4817   1.927   2.506   3.532
  373PF6      F 4818   2.068   2.648   3.418
  373PF6      F 4819   2.041   2.671   3.646
  373PF6      F 4820   1.954   2.830   3.503
  373PF6      F 4821   1.813   2.688   3.617
  374PF6      F 4822   1.031   1.412   1.452
  374PF6      P 4823   1.119   1.406   1.315
  374PF6      F 4824   0.987   1.355   1.233
  374PF6      F 4825   1.079   1.561   1.282
  374PF6      F 4826   1.206   1.400   1.177
  374PF6      F 4827   1.250   1.458   1.396
  374PF6      F 4828   1.159   1.252   1.347
  375LI      Li 4829   1.477   0.765   1.296
  376LI      Li 4830   2.458   0.849   1.912
  377LI      Li 4831   0.651   0.765   3.872
  378LI      Li 4832   3.392   2.073   1.643
  379LI      Li 4833   1.309   2.763   3.914
  380LI      Li 4834   0.569   3.283   1.097
  381LI      Li 4835   1.656   2.121   3.908
  382LI      Li 4836   1.637   0.260   3.345
  383LI      Li 4837   2.635   0.342   1.432
  384LI      Li 4838   3.370   2.469   3.708
  385LI      Li 4839   3.478   0.825   3.159
  386LI      Li 4840   2.024   2.405   1.843
  387LI      Li 4841   2.044   2.326   3.485
  388LI      Li 4842   1.395   1.733   2.354
  389LI      Li 4843   3.183   0.277   2.875
  390LI      Li 4844   2.756   1.254   0.287
  391LI      Li 4845   3.683   1.214   1.919
  392LI      Li 4846   1.040   2.441   3.812
  393LI      Li 4847   3.855   2.882   2.246
  394LI      Li 4848   2.291   1.355   2.435
  395LI      Li 4849   2.889   2.747   1.704
  396LI      Li 4850   2.810   3.803   1.423
  397LI      Li 4851   1.602   2.169   0.662
  398LI      Li 4852   0.672   1.777   1.878
  399LI      Li 4853   3.162   0.901   0.992
  400LI      Li 4854   2.011   0.454   2.237
  401LI      Li 4855   1.696   3.993   1.905
  402LI      Li 4856   2.615   1.712   1.358
  403LI      Li 4857   1.911   3.601   2.835
  404LI      Li 4858   2.895   3.307   3.655
  405LI      Li 4859   0.605   0.105   3.855
  406LI      Li 4860   0.897   3.395   1.067
  407LI      Li 4861   3.151   1.816   1.996
  408LI      Li 4862   3.193   0.688   0.117
   4.10000   4.10000   4.10000
