; ITP file created by ByteFF-ML, 2026-09-21 20:05:53.794809

[ defaults ]
;     nbfunc   comb-rule   gen-pairs     fudgeLJ     fudgeQQ
           1           2         yes  0.50000000  0.50000000

#include "EMC.itp"
#include "EC.itp"
#include "PF6.itp"
#include "LI.itp"

#include "EMC.atp"
#include "EC.atp"
#include "PF6.atp"
#include "LI.atp"

[ system ]
Full System

[ molecules ]
;molecule            nmols
 EMC                   238
 EC                    102
 PF6                    34
 LI                     34