; ITP file created by ByteFF-ML, 2026-09-16 23:22:27.384837

[ moleculetype ]
;name             nrexcl
 LI                    3

[ atoms ]
;       nr            type      resi   res      atom      cgnr      charge          mass ; qtot
         1           li0bf         1   UNL       li0         1     1.00000        6.9410 ; qtot    1.000
