A Gromacs structure file written by ASE
 3360
    1SL       O    1   0.100   2.384   2.044
    1SL       S    2   0.227   2.317   2.060
    1SL       O    3   0.334   2.332   1.964
    1SL       C    4   0.290   2.354   2.223
    1SL       C    5   0.319   2.218   2.286
    1SL       C    6   0.207   2.124   2.238
    1SL       C    7   0.198   2.144   2.088
    1SL       H    8   0.379   2.416   2.215
    1SL       H    9   0.212   2.406   2.279
    1SL       H   10   0.322   2.224   2.395
    1SL       H   11   0.415   2.180   2.251
    1SL       H   12   0.112   2.154   2.286
    1SL       H   13   0.227   2.020   2.265
    1SL       H   14   0.100   2.116   2.048
    1SL       H   15   0.276   2.088   2.037
    2SL       O   16   1.788   2.663   2.297
    2SL       S   17   1.811   2.608   2.428
    2SL       O   18   1.798   2.688   2.548
    2SL       C   19   1.712   2.461   2.445
    2SL       C   20   1.810   2.352   2.488
    2SL       C   21   1.939   2.379   2.411
    2SL       C   22   1.969   2.526   2.431
    2SL       H   23   1.633   2.477   2.519
    2SL       H   24   1.668   2.438   2.348
    2SL       H   25   1.770   2.252   2.466
    2SL       H   26   1.829   2.358   2.596
    2SL       H   27   1.923   2.357   2.304
    2SL       H   28   2.021   2.316   2.446
    2SL       H   29   2.033   2.567   2.352
    2SL       H   30   2.014   2.544   2.529
    3SL       O   31   3.277   2.212   1.604
    3SL       S   32   3.289   2.267   1.736
    3SL       O   33   3.191   2.242   1.840
    3SL       C   34   3.451   2.227   1.799
    3SL       C   35   3.511   2.361   1.842
    3SL       C   36   3.465   2.463   1.738
    3SL       C   37   3.316   2.443   1.724
    3SL       H   38   3.443   2.157   1.883
    3SL       H   39   3.509   2.183   1.718
    3SL       H   40   3.621   2.356   1.848
    3SL       H   41   3.474   2.389   1.941
    3SL       H   42   3.515   2.443   1.642
    3SL       H   43   3.489   2.565   1.768
    3SL       H   44   3.277   2.479   1.628
    3SL       H   45   3.261   2.491   1.806
    4SL       O   46   2.843   1.563   3.503
    4SL       S   47   2.800   1.701   3.503
    4SL       O   48   2.877   1.805   3.569
    4SL       C   49   2.768   1.750   3.335
    4SL       C   50   2.626   1.806   3.336
    4SL       C   51   2.547   1.719   3.434
    4SL       C   52   2.631   1.710   3.559
    4SL       H   53   2.842   1.823   3.302
    4SL       H   54   2.774   1.661   3.272
    4SL       H   55   2.582   1.806   3.236
    4SL       H   56   2.628   1.910   3.372
    4SL       H   57   2.533   1.619   3.390
    4SL       H   58   2.448   1.761   3.455
    4SL       H   59   2.608   1.622   3.620
    4SL       H   60   2.621   1.801   3.620
    5SL       O   61   2.327   2.750   2.320
    5SL       S   62   2.460   2.696   2.337
    5SL       O   63   2.575   2.782   2.357
    5SL       C   64   2.455   2.574   2.467
    5SL       C   65   2.517   2.449   2.406
    5SL       C   66   2.469   2.445   2.261
    5SL       C   67   2.495   2.583   2.204
    5SL       H   68   2.511   2.610   2.554
    5SL       H   69   2.351   2.557   2.494
    5SL       H   70   2.487   2.359   2.461
    5SL       H   71   2.626   2.455   2.409
    5SL       H   72   2.361   2.423   2.259
    5SL       H   73   2.520   2.367   2.203
    5SL       H   74   2.432   2.606   2.118
    5SL       H   75   2.600   2.595   2.177
    6SL       O   76   0.340   0.795   2.778
    6SL       S   77   0.449   0.870   2.837
    6SL       O   78   0.588   0.833   2.816
    6SL       C   79   0.428   1.042   2.798
    6SL       C   80   0.432   1.114   2.933
    6SL       C   81   0.360   1.023   3.032
    6SL       C   82   0.420   0.885   3.013
    6SL       H   83   0.507   1.075   2.731
    6SL       H   84   0.331   1.055   2.751
    6SL       H   85   0.385   1.213   2.927
    6SL       H   86   0.536   1.128   2.965
    6SL       H   87   0.253   1.021   3.009
    6SL       H   88   0.371   1.057   3.135
    6SL       H   89   0.354   0.804   3.046
    6SL       H   90   0.517   0.876   3.063
    7SL       O   91   1.770   2.503   0.949
    7SL       S   92   1.709   2.392   0.880
    7SL       O   93   1.707   2.383   0.736
    7SL       C   94   1.775   2.240   0.947
    7SL       C   95   1.653   2.158   0.987
    7SL       C   96   1.551   2.258   1.043
    7SL       C   97   1.543   2.370   0.941
    7SL       H   98   1.836   2.190   0.872
    7SL       H   99   1.836   2.265   1.034
    7SL       H  100   1.679   2.082   1.061
    7SL       H  101   1.611   2.108   0.900
    7SL       H  102   1.588   2.297   1.140
    7SL       H  103   1.454   2.212   1.061
    7SL       H  104   1.507   2.464   0.984
    7SL       H  105   1.480   2.341   0.857
    8SL       O  106   1.453   1.112   1.065
    8SL       S  107   1.590   1.066   1.055
    8SL       O  108   1.625   0.951   0.974
    8SL       C  109   1.694   1.203   1.009
    8SL       C  110   1.804   1.206   1.115
    8SL       C  111   1.737   1.168   1.247
    8SL       C  112   1.656   1.043   1.219
    8SL       H  113   1.733   1.189   0.908
    8SL       H  114   1.633   1.294   1.014
    8SL       H  115   1.851   1.304   1.120
    8SL       H  116   1.881   1.132   1.090
    8SL       H  117   1.671   1.250   1.279
    8SL       H  118   1.810   1.152   1.327
    8SL       H  119   1.574   1.028   1.290
    8SL       H  120   1.720   0.955   1.217
    9SL       O  121   3.293   1.769   1.087
    9SL       S  122   3.329   1.714   1.216
    9SL       O  123   3.363   1.799   1.328
    9SL       C  124   3.201   1.601   1.266
    9SL       C  125   3.274   1.471   1.298
    9SL       C  126   3.386   1.458   1.195
    9SL       C  127   3.457   1.592   1.194
    9SL       H  128   3.147   1.641   1.352
    9SL       H  129   3.132   1.587   1.182
    9SL       H  130   3.206   1.385   1.294
    9SL       H  131   3.317   1.475   1.399
    9SL       H  132   3.342   1.438   1.096
    9SL       H  133   3.454   1.377   1.218
    9SL       H  134   3.511   1.611   1.101
    9SL       H  135   3.525   1.601   1.279
   10SL       O  136   2.021   1.570   2.394
   10SL       S  137   2.102   1.463   2.341
   10SL       O  138   2.244   1.478   2.320
   10SL       C  139   2.072   1.317   2.438
   10SL       C  140   2.035   1.209   2.336
   10SL       C  141   1.950   1.279   2.230
   10SL       C  142   2.028   1.403   2.190
   10SL       H  143   2.162   1.291   2.495
   10SL       H  144   1.989   1.337   2.506
   10SL       H  145   1.980   1.127   2.384
   10SL       H  146   2.125   1.167   2.290
   10SL       H  147   1.853   1.307   2.273
   10SL       H  148   1.931   1.214   2.144
   10SL       H  149   1.964   1.481   2.147
   10SL       H  150   2.108   1.378   2.121
   11SL       O  151   1.521   2.913   2.473
   11SL       S  152   1.551   2.978   2.598
   11SL       O  153   1.670   2.947   2.674
   11SL       C  154   1.542   3.155   2.574
   11SL       C  155   1.445   3.204   2.681
   11SL       C  156   1.337   3.097   2.693
   11SL       C  157   1.409   2.965   2.706
   11SL       H  158   1.641   3.199   2.583
   11SL       H  159   1.502   3.173   2.474
   11SL       H  160   1.403   3.302   2.655
   11SL       H  161   1.498   3.215   2.777
   11SL       H  162   1.275   3.098   2.602
   11SL       H  163   1.271   3.116   2.778
   11SL       H  164   1.348   2.880   2.676
   11SL       H  165   1.446   2.950   2.808
   12SL       O  166   1.471   2.195   2.302
   12SL       S  167   1.404   2.075   2.256
   12SL       O  168   1.353   1.975   2.348
   12SL       C  169   1.273   2.123   2.145
   12SL       C  170   1.298   2.042   2.017
   12SL       C  171   1.450   2.036   2.000
   12SL       C  172   1.506   1.994   2.134
   12SL       H  173   1.176   2.101   2.190
   12SL       H  174   1.282   2.230   2.125
   12SL       H  175   1.249   2.087   1.931
   12SL       H  176   1.258   1.940   2.029
   12SL       H  177   1.487   2.136   1.973
   12SL       H  178   1.479   1.967   1.920
   12SL       H  179   1.610   2.024   2.148
   12SL       H  180   1.496   1.886   2.149
   13SL       O  181   2.214   3.620   2.686
   13SL       S  182   2.284   3.494   2.692
   13SL       O  183   2.237   3.384   2.774
   13SL       C  184   2.309   3.435   2.525
   13SL       C  185   2.459   3.408   2.515
   13SL       C  186   2.528   3.518   2.596
   13SL       C  187   2.456   3.523   2.729
   13SL       H  188   2.249   3.346   2.507
   13SL       H  189   2.279   3.515   2.456
   13SL       H  190   2.492   3.408   2.411
   13SL       H  191   2.483   3.310   2.559
   13SL       H  192   2.516   3.614   2.543
   13SL       H  193   2.634   3.499   2.608
   13SL       H  194   2.466   3.620   2.779
   13SL       H  195   2.490   3.443   2.795
   14SL       O  196   0.771   2.626   2.707
   14SL       S  197   0.739   2.580   2.574
   14SL       O  198   0.819   2.616   2.459
   14SL       C  199   0.720   2.403   2.579
   14SL       C  200   0.582   2.377   2.517
   14SL       C  201   0.492   2.490   2.565
   14SL       C  202   0.568   2.618   2.539
   14SL       H  203   0.800   2.355   2.523
   14SL       H  204   0.722   2.371   2.683
   14SL       H  205   0.544   2.279   2.547
   14SL       H  206   0.589   2.378   2.408
   14SL       H  207   0.473   2.478   2.673
   14SL       H  208   0.395   2.489   2.514
   14SL       H  209   0.535   2.701   2.602
   14SL       H  210   0.561   2.647   2.434
   15SL       O  211   0.369   2.883   0.545
   15SL       S  212   0.390   2.784   0.443
   15SL       O  213   0.481   2.806   0.332
   15SL       C  214   0.433   2.630   0.522
   15SL       C  215   0.334   2.528   0.465
   15SL       C  216   0.201   2.601   0.450
   15SL       C  217   0.233   2.731   0.378
   15SL       H  218   0.537   2.604   0.501
   15SL       H  219   0.419   2.641   0.630
   15SL       H  220   0.325   2.440   0.530
   15SL       H  221   0.369   2.493   0.367
   15SL       H  222   0.160   2.622   0.550
   15SL       H  223   0.128   2.542   0.395
   15SL       H  224   0.158   2.809   0.396
   15SL       H  225   0.245   2.714   0.271
   16SL       O  226   2.621   0.879   0.934
   16SL       S  227   2.536   0.767   0.965
   16SL       O  228   2.516   0.721   1.101
   16SL       C  229   2.377   0.793   0.889
   16SL       C  230   2.351   0.667   0.807
   16SL       C  231   2.487   0.626   0.749
   16SL       C  232   2.584   0.628   0.864
   16SL       H  233   2.301   0.809   0.966
   16SL       H  234   2.384   0.881   0.824
   16SL       H  235   2.277   0.685   0.728
   16SL       H  236   2.313   0.587   0.871
   16SL       H  237   2.517   0.699   0.672
   16SL       H  238   2.483   0.528   0.701
   16SL       H  239   2.688   0.640   0.832
   16SL       H  240   2.575   0.537   0.925
   17SL       O  241   2.836   1.652   1.953
   17SL       S  242   2.900   1.735   1.854
   17SL       O  243   2.851   1.743   1.717
   17SL       C  244   2.915   1.900   1.920
   17SL       C  245   3.063   1.935   1.905
   17SL       C  246   3.140   1.806   1.934
   17SL       C  247   3.074   1.698   1.850
   17SL       H  248   2.850   1.969   1.865
   17SL       H  249   2.886   1.897   2.025
   17SL       H  250   3.092   2.015   1.973
   17SL       H  251   3.084   1.968   1.803
   17SL       H  252   3.132   1.781   2.041
   17SL       H  253   3.246   1.816   1.910
   17SL       H  254   3.091   1.597   1.889
   17SL       H  255   3.107   1.704   1.746
   18SL       O  256   1.962   0.639   2.288
   18SL       S  257   2.084   0.565   2.314
   18SL       O  258   2.203   0.583   2.233
   18SL       C  259   2.126   0.584   2.486
   18SL       C  260   2.142   0.441   2.538
   18SL       C  261   2.035   0.358   2.468
   18SL       C  262   2.045   0.391   2.321
   18SL       H  263   2.218   0.643   2.495
   18SL       H  264   2.044   0.635   2.536
   18SL       H  265   2.132   0.437   2.647
   18SL       H  266   2.242   0.402   2.512
   18SL       H  267   1.936   0.387   2.507
   18SL       H  268   2.047   0.251   2.487
   18SL       H  269   1.953   0.372   2.266
   18SL       H  270   2.128   0.337   2.274
   19SL       O  271   3.074   2.221   2.561
   19SL       S  272   3.128   2.117   2.477
   19SL       O  273   3.232   2.145   2.379
   19SL       C  274   3.180   1.981   2.580
   19SL       C  275   3.111   1.858   2.522
   19SL       C  276   2.972   1.905   2.477
   19SL       C  277   2.995   2.031   2.396
   19SL       H  278   3.290   1.973   2.579
   19SL       H  279   3.146   2.001   2.682
   19SL       H  280   3.105   1.778   2.595
   19SL       H  281   3.167   1.821   2.435
   19SL       H  282   2.911   1.928   2.566
   19SL       H  283   2.920   1.829   2.420
   19SL       H  284   2.907   2.095   2.392
   19SL       H  285   3.028   2.006   2.294
   20SL       O  286   1.725   2.216   1.567
   20SL       S  287   1.717   2.113   1.667
   20SL       O  288   1.643   2.131   1.790
   20SL       C  289   1.664   1.962   1.589
   20SL       C  290   1.769   1.858   1.627
   20SL       C  291   1.903   1.931   1.627
   20SL       C  292   1.882   2.057   1.707
   20SL       H  293   1.564   1.935   1.623
   20SL       H  294   1.663   1.978   1.481
   20SL       H  295   1.769   1.773   1.558
   20SL       H  296   1.748   1.819   1.728
   20SL       H  297   1.930   1.956   1.523
   20SL       H  298   1.983   1.870   1.668
   20SL       H  299   1.954   2.136   1.682
   20SL       H  300   1.885   2.037   1.814
   21SL       O  301   1.512   3.332   1.979
   21SL       S  302   1.433   3.224   1.925
   21SL       O  303   1.328   3.247   1.827
   21SL       C  304   1.543   3.098   1.863
   21SL       C  305   1.498   2.969   1.931
   21SL       C  306   1.458   3.008   2.073
   21SL       C  307   1.366   3.128   2.059
   21SL       H  308   1.536   3.093   1.754
   21SL       H  309   1.645   3.125   1.893
   21SL       H  310   1.578   2.894   1.931
   21SL       H  311   1.412   2.927   1.879
   21SL       H  312   1.548   3.036   2.130
   21SL       H  313   1.409   2.926   2.126
   21SL       H  314   1.362   3.189   2.150
   21SL       H  315   1.265   3.096   2.031
   22SL       O  316   2.382   1.014   1.414
   22SL       S  317   2.473   1.124   1.393
   22SL       O  318   2.432   1.262   1.408
   22SL       C  319   2.619   1.095   1.491
   22SL       C  320   2.736   1.105   1.392
   22SL       C  321   2.686   1.042   1.262
   22SL       C  322   2.552   1.105   1.234
   22SL       H  323   2.626   1.169   1.571
   22SL       H  324   2.613   0.995   1.533
   22SL       H  325   2.825   1.054   1.430
   22SL       H  326   2.761   1.210   1.375
   22SL       H  327   2.675   0.933   1.276
   22SL       H  328   2.756   1.058   1.180
   22SL       H  329   2.488   1.043   1.169
   22SL       H  330   2.563   1.204   1.190
   23SL       O  331   1.001   1.526   3.460
   23SL       S  332   1.124   1.485   3.396
   23SL       O  333   1.182   1.560   3.286
   23SL       C  334   1.248   1.463   3.522
   23SL       C  335   1.303   1.322   3.500
   23SL       C  336   1.183   1.237   3.458
   23SL       C  337   1.113   1.314   3.349
   23SL       H  338   1.326   1.540   3.513
   23SL       H  339   1.200   1.470   3.620
   23SL       H  340   1.351   1.283   3.590
   23SL       H  341   1.377   1.323   3.419
   23SL       H  342   1.116   1.223   3.545
   23SL       H  343   1.214   1.137   3.424
   23SL       H  344   1.007   1.286   3.338
   23SL       H  345   1.164   1.302   3.253
   24SL       O  346   1.378   2.076   0.905
   24SL       S  347   1.263   2.018   0.970
   24SL       O  348   1.134   2.084   0.972
   24SL       C  349   1.241   1.852   0.908
   24SL       C  350   1.236   1.764   1.033
   24SL       C  351   1.336   1.823   1.132
   24SL       C  352   1.306   1.972   1.137
   24SL       H  353   1.150   1.845   0.849
   24SL       H  354   1.328   1.827   0.847
   24SL       H  355   1.260   1.659   1.009
   24SL       H  356   1.135   1.766   1.077
   24SL       H  357   1.439   1.807   1.094
   24SL       H  358   1.329   1.777   1.230
   24SL       H  359   1.392   2.031   1.170
   24SL       H  360   1.220   1.992   1.201
   25SL       O  361   1.022   3.581   1.754
   25SL       S  362   1.041   3.464   1.672
   25SL       O  363   1.103   3.343   1.724
   25SL       C  364   0.885   3.421   1.597
   25SL       C  365   0.914   3.412   1.448
   25SL       C  366   1.014   3.523   1.417
   25SL       C  367   1.124   3.510   1.521
   25SL       H  368   0.848   3.327   1.638
   25SL       H  369   0.814   3.501   1.618
   25SL       H  370   0.822   3.423   1.388
   25SL       H  371   0.958   3.315   1.424
   25SL       H  372   0.964   3.621   1.427
   25SL       H  373   1.054   3.516   1.316
   25SL       H  374   1.179   3.603   1.537
   25SL       H  375   1.193   3.430   1.495
   26SL       O  376   2.800   1.193   1.725
   26SL       S  377   2.884   1.303   1.765
   26SL       O  378   2.865   1.371   1.892
   26SL       C  379   3.054   1.254   1.750
   26SL       C  380   3.120   1.361   1.664
   26SL       C  381   3.015   1.401   1.559
   26SL       C  382   2.887   1.425   1.635
   26SL       H  383   3.100   1.246   1.850
   26SL       H  384   3.057   1.157   1.700
   26SL       H  385   3.212   1.325   1.618
   26SL       H  386   3.145   1.449   1.725
   26SL       H  387   3.002   1.317   1.488
   26SL       H  388   3.046   1.488   1.502
   26SL       H  389   2.798   1.415   1.573
   26SL       H  390   2.888   1.524   1.682
   27SL       O  391   1.149   1.043   1.405
   27SL       S  392   1.165   0.967   1.526
   27SL       O  393   1.052   0.928   1.608
   27SL       C  394   1.263   0.823   1.490
   27SL       C  395   1.378   0.827   1.591
   27SL       C  396   1.416   0.974   1.606
   27SL       C  397   1.286   1.048   1.630
   27SL       H  398   1.202   0.733   1.500
   27SL       H  399   1.301   0.832   1.388
   27SL       H  400   1.463   0.767   1.557
   27SL       H  401   1.345   0.787   1.687
   27SL       H  402   1.463   1.010   1.513
   27SL       H  403   1.486   0.990   1.688
   27SL       H  404   1.291   1.154   1.603
   27SL       H  405   1.253   1.038   1.734
   28SL       O  406   1.598   0.491   0.694
   28SL       S  407   1.531   0.549   0.580
   28SL       O  408   1.458   0.467   0.485
   28SL       C  409   1.426   0.681   0.636
   28SL       C  410   1.467   0.802   0.553
   28SL       C  411   1.618   0.793   0.535
   28SL       C  412   1.646   0.651   0.490
   28SL       H  413   1.321   0.654   0.623
   28SL       H  414   1.447   0.698   0.742
   28SL       H  415   1.437   0.896   0.601
   28SL       H  416   1.418   0.798   0.455
   28SL       H  417   1.667   0.813   0.632
   28SL       H  418   1.656   0.866   0.463
   28SL       H  419   1.749   0.619   0.512
   28SL       H  420   1.626   0.639   0.383
   29SL       O  421   1.305   2.375   0.705
   29SL       S  422   1.339   2.456   0.591
   29SL       O  423   1.244   2.546   0.528
   29SL       C  424   1.488   2.547   0.629
   29SL       C  425   1.584   2.515   0.515
   29SL       C  426   1.561   2.368   0.479
   29SL       C  427   1.411   2.352   0.465
   29SL       H  428   1.466   2.654   0.637
   29SL       H  429   1.527   2.510   0.724
   29SL       H  430   1.688   2.534   0.544
   29SL       H  431   1.562   2.578   0.428
   29SL       H  432   1.599   2.305   0.561
   29SL       H  433   1.614   2.340   0.388
   29SL       H  434   1.378   2.249   0.479
   29SL       H  435   1.377   2.389   0.367
   30SL       O  436   1.800   3.621   1.416
   30SL       S  437   1.779   3.516   1.319
   30SL       O  438   1.726   3.543   1.187
   30SL       C  439   1.929   3.422   1.304
   30SL       C  440   1.887   3.277   1.328
   30SL       C  441   1.780   3.281   1.437
   30SL       C  442   1.681   3.387   1.394
   30SL       H  443   1.973   3.437   1.205
   30SL       H  444   1.998   3.455   1.382
   30SL       H  445   1.973   3.215   1.357
   30SL       H  446   1.845   3.234   1.236
   30SL       H  447   1.827   3.309   1.532
   30SL       H  448   1.732   3.184   1.450
   30SL       H  449   1.624   3.428   1.477
   30SL       H  450   1.613   3.348   1.317
   31SL       O  451   1.087   2.962   1.468
   31SL       S  452   1.172   3.013   1.363
   31SL       O  453   1.145   2.986   1.223
   31SL       C  454   1.190   3.188   1.385
   31SL       C  455   1.341   3.212   1.387
   31SL       C  456   1.402   3.093   1.461
   31SL       C  457   1.341   2.970   1.398
   31SL       H  458   1.140   3.242   1.305
   31SL       H  459   1.146   3.215   1.481
   31SL       H  460   1.366   3.307   1.436
   31SL       H  461   1.380   3.216   1.284
   31SL       H  462   1.375   3.099   1.567
   31SL       H  463   1.511   3.092   1.454
   31SL       H  464   1.344   2.882   1.464
   31SL       H  465   1.390   2.946   1.303
   32SL       O  466   1.464   2.722   2.848
   32SL       S  467   1.477   2.581   2.879
   32SL       O  468   1.435   2.478   2.785
   32SL       C  469   1.645   2.549   2.928
   32SL       C  470   1.634   2.479   3.063
   32SL       C  471   1.517   2.545   3.136
   32SL       C  472   1.402   2.548   3.037
   32SL       H  473   1.695   2.488   2.853
   32SL       H  474   1.696   2.645   2.939
   32SL       H  475   1.727   2.487   3.120
   32SL       H  476   1.612   2.372   3.048
   32SL       H  477   1.546   2.648   3.164
   32SL       H  478   1.490   2.492   3.227
   32SL       H  479   1.329   2.626   3.060
   32SL       H  480   1.353   2.451   3.031
   33SL       O  481   0.260   2.331   1.484
   33SL       S  482   0.247   2.336   1.340
   33SL       O  483   0.118   2.328   1.275
   33SL       C  484   0.334   2.479   1.280
   33SL       C  485   0.430   2.425   1.174
   33SL       C  486   0.479   2.290   1.225
   33SL       C  487   0.355   2.214   1.268
   33SL       H  488   0.264   2.552   1.240
   33SL       H  489   0.390   2.522   1.364
   33SL       H  490   0.513   2.494   1.156
   33SL       H  491   0.376   2.411   1.079
   33SL       H  492   0.545   2.306   1.312
   33SL       H  493   0.535   2.235   1.149
   33SL       H  494   0.376   2.135   1.341
   33SL       H  495   0.304   2.171   1.181
   34SL       O  496   2.425   2.861   3.137
   34SL       S  497   2.541   2.784   3.100
   34SL       O  498   2.671   2.807   3.159
   34SL       C  499   2.501   2.611   3.113
   34SL       C  500   2.536   2.551   2.977
   34SL       C  501   2.498   2.657   2.873
   34SL       C  502   2.558   2.787   2.922
   34SL       H  503   2.557   2.565   3.195
   34SL       H  504   2.394   2.602   3.132
   34SL       H  505   2.483   2.457   2.959
   34SL       H  506   2.644   2.531   2.971
   34SL       H  507   2.388   2.665   2.869
   34SL       H  508   2.533   2.631   2.773
   34SL       H  509   2.507   2.875   2.882
   34SL       H  510   2.665   2.792   2.899
   35SL       O  511   1.186   2.692   2.758
   35SL       S  512   1.164   2.551   2.734
   35SL       O  513   1.169   2.453   2.841
   35SL       C  514   1.012   2.532   2.644
   35SL       C  515   1.049   2.449   2.521
   35SL       C  516   1.187   2.497   2.477
   35SL       C  517   1.272   2.498   2.602
   35SL       H  518   0.937   2.482   2.707
   35SL       H  519   0.976   2.631   2.615
   35SL       H  520   0.975   2.461   2.441
   35SL       H  521   1.053   2.343   2.547
   35SL       H  522   1.179   2.600   2.437
   35SL       H  523   1.230   2.434   2.399
   35SL       H  524   1.358   2.565   2.595
   35SL       H  525   1.307   2.396   2.626
   36SL       O  526   1.987   2.413   1.710
   36SL       S  527   2.035   2.492   1.600
   36SL       O  528   2.034   2.637   1.603
   36SL       C  529   2.199   2.436   1.557
   36SL       C  530   2.193   2.405   1.408
   36SL       C  531   2.055   2.345   1.383
   36SL       C  532   1.956   2.437   1.450
   36SL       H  533   2.272   2.513   1.581
   36SL       H  534   2.220   2.345   1.615
   36SL       H  535   2.273   2.337   1.378
   36SL       H  536   2.204   2.498   1.350
   36SL       H  537   2.050   2.244   1.428
   36SL       H  538   2.034   2.333   1.276
   36SL       H  539   1.861   2.388   1.474
   36SL       H  540   1.937   2.525   1.388
   37SL       O  541   1.458   0.805   3.269
   37SL       S  542   1.484   0.869   3.143
   37SL       O  543   1.616   0.871   3.084
   37SL       C  544   1.367   0.807   3.023
   37SL       C  545   1.302   0.931   2.963
   37SL       C  546   1.286   1.030   3.079
   37SL       C  547   1.420   1.035   3.148
   37SL       H  548   1.419   0.746   2.948
   37SL       H  549   1.294   0.745   3.075
   37SL       H  550   1.205   0.907   2.917
   37SL       H  551   1.366   0.974   2.886
   37SL       H  552   1.209   0.992   3.148
   37SL       H  553   1.254   1.128   3.044
   37SL       H  554   1.414   1.069   3.252
   37SL       H  555   1.490   1.099   3.093
   38SL       O  556   1.964   0.639   2.981
   38SL       S  557   1.834   0.602   3.031
   38SL       O  558   1.771   0.673   3.141
   38SL       C  559   1.721   0.595   2.894
   38SL       C  560   1.657   0.456   2.902
   38SL       C  561   1.768   0.362   2.948
   38SL       C  562   1.833   0.428   3.068
   38SL       H  563   1.647   0.675   2.901
   38SL       H  564   1.779   0.606   2.801
   38SL       H  565   1.616   0.426   2.805
   38SL       H  566   1.576   0.457   2.976
   38SL       H  567   1.842   0.350   2.867
   38SL       H  568   1.730   0.263   2.972
   38SL       H  569   1.935   0.393   3.086
   38SL       H  570   1.772   0.413   3.158
   39SL       O  571   3.460   2.575   2.530
   39SL       S  572   3.339   2.567   2.608
   39SL       O  573   3.341   2.571   2.753
   39SL       C  574   3.225   2.690   2.548
   39SL       C  575   3.097   2.614   2.518
   39SL       C  576   3.140   2.479   2.460
   39SL       C  577   3.245   2.425   2.555
   39SL       H  578   3.211   2.768   2.624
   39SL       H  579   3.267   2.734   2.457
   39SL       H  580   3.033   2.669   2.448
   39SL       H  581   3.040   2.598   2.610
   39SL       H  582   3.183   2.494   2.360
   39SL       H  583   3.056   2.410   2.450
   39SL       H  584   3.312   2.352   2.508
   39SL       H  585   3.199   2.381   2.644
   40SL       O  586   3.155   0.791   3.240
   40SL       S  587   3.080   0.904   3.189
   40SL       O  588   3.134   0.991   3.087
   40SL       C  589   2.919   0.846   3.138
   40SL       C  590   2.820   0.936   3.211
   40SL       C  591   2.880   0.961   3.350
   40SL       C  592   3.024   1.003   3.326
   40SL       H  593   2.910   0.853   3.029
   40SL       H  594   2.909   0.742   3.170
   40SL       H  595   2.721   0.890   3.218
   40SL       H  596   2.809   1.031   3.158
   40SL       H  597   2.877   0.868   3.408
   40SL       H  598   2.825   1.037   3.405
   40SL       H  599   3.088   0.985   3.413
   40SL       H  600   3.030   1.108   3.296
   41SL       O  601   2.417   1.769   1.999
   41SL       S  602   2.430   1.849   1.880
   41SL       O  603   2.471   1.793   1.753
   41SL       C  604   2.278   1.940   1.856
   41SL       C  605   2.320   2.086   1.844
   41SL       C  606   2.436   2.105   1.942
   41SL       C  607   2.532   1.991   1.916
   41SL       H  608   2.226   1.903   1.767
   41SL       H  609   2.216   1.925   1.945
   41SL       H  610   2.237   2.154   1.866
   41SL       H  611   2.355   2.106   1.742
   41SL       H  612   2.398   2.100   2.045
   41SL       H  613   2.485   2.202   1.929
   41SL       H  614   2.597   1.969   2.001
   41SL       H  615   2.594   2.011   1.827
   42SL       O  616   3.163   2.866   3.318
   42SL       S  617   3.086   2.979   3.270
   42SL       O  618   3.069   3.005   3.129
   42SL       C  619   2.927   2.976   3.349
   42SL       C  620   2.911   3.115   3.411
   42SL       C  621   3.050   3.154   3.463
   42SL       C  622   3.146   3.127   3.349
   42SL       H  623   2.849   2.955   3.276
   42SL       H  624   2.928   2.899   3.426
   42SL       H  625   2.837   3.115   3.492
   42SL       H  626   2.879   3.187   3.335
   42SL       H  627   3.075   3.091   3.550
   42SL       H  628   3.054   3.258   3.495
   42SL       H  629   3.249   3.112   3.383
   42SL       H  630   3.142   3.208   3.275
   43SL       O  631   2.397   0.222   3.061
   43SL       S  632   2.460   0.276   2.943
   43SL       O  633   2.422   0.233   2.809
   43SL       C  634   2.452   0.454   2.951
   43SL       C  635   2.597   0.501   2.932
   43SL       C  636   2.684   0.399   3.006
   43SL       C  637   2.637   0.263   2.960
   43SL       H  638   2.386   0.492   2.873
   43SL       H  639   2.415   0.482   3.049
   43SL       H  640   2.611   0.602   2.971
   43SL       H  641   2.622   0.501   2.825
   43SL       H  642   2.668   0.410   3.114
   43SL       H  643   2.790   0.414   2.986
   43SL       H  644   2.661   0.183   3.031
   43SL       H  645   2.678   0.238   2.861
   44SL       O  646   1.207   1.362   0.937
   44SL       S  647   1.077   1.344   0.999
   44SL       O  648   1.028   1.213   1.035
   44SL       C  649   1.066   1.452   1.140
   44SL       C  650   0.937   1.532   1.118
   44SL       C  651   0.929   1.559   0.968
   44SL       C  652   0.954   1.426   0.900
   44SL       H  653   1.063   1.394   1.232
   44SL       H  654   1.153   1.518   1.140
   44SL       H  655   0.938   1.625   1.176
   44SL       H  656   0.850   1.473   1.149
   44SL       H  657   1.008   1.631   0.940
   44SL       H  658   0.833   1.602   0.939
   44SL       H  659   0.990   1.437   0.797
   44SL       H  660   0.864   1.364   0.901
   45SL       O  661   2.847   3.620   1.277
   45SL       S  662   2.756   3.509   1.266
   45SL       O  663   2.686   3.479   1.143
   45SL       C  664   2.839   3.361   1.322
   45SL       C  665   2.748   3.302   1.429
   45SL       C  666   2.688   3.421   1.505
   45SL       C  667   2.638   3.517   1.399
   45SL       H  668   2.856   3.293   1.239
   45SL       H  669   2.935   3.391   1.366
   45SL       H  670   2.802   3.235   1.496
   45SL       H  671   2.667   3.245   1.382
   45SL       H  672   2.768   3.469   1.565
   45SL       H  673   2.609   3.391   1.573
   45SL       H  674   2.630   3.620   1.435
   45SL       H  675   2.541   3.484   1.360
   46SL       O  676   1.053   0.474   0.186
   46SL       S  677   1.059   0.569   0.294
   46SL       O  678   1.012   0.536   0.428
   46SL       C  679   1.225   0.632   0.306
   46SL       C  680   1.210   0.784   0.301
   46SL       C  681   1.096   0.812   0.202
   46SL       C  682   0.982   0.721   0.243
   46SL       H  683   1.273   0.598   0.398
   46SL       H  684   1.281   0.596   0.219
   46SL       H  685   1.303   0.833   0.270
   46SL       H  686   1.183   0.822   0.400
   46SL       H  687   1.130   0.788   0.100
   46SL       H  688   1.066   0.917   0.203
   46SL       H  689   0.913   0.701   0.161
   46SL       H  690   0.928   0.762   0.328
   47SL       O  691   3.047   1.903   0.477
   47SL       S  692   3.090   2.033   0.431
   47SL       O  693   3.133   2.056   0.294
   47SL       C  694   2.964   2.152   0.472
   47SL       C  695   3.037   2.262   0.549
   47SL       C  696   3.142   2.191   0.635
   47SL       C  697   3.215   2.097   0.542
   47SL       H  698   2.916   2.190   0.381
   47SL       H  699   2.890   2.103   0.536
   47SL       H  700   2.968   2.321   0.611
   47SL       H  701   3.087   2.331   0.479
   47SL       H  702   3.092   2.135   0.715
   47SL       H  703   3.211   2.262   0.682
   47SL       H  704   3.263   2.014   0.594
   47SL       H  705   3.289   2.150   0.481
   48SL       O  706   1.550   3.460   2.417
   48SL       S  707   1.478   3.400   2.307
   48SL       O  708   1.539   3.298   2.223
   48SL       C  709   1.322   3.340   2.367
   48SL       C  710   1.217   3.402   2.275
   48SL       C  711   1.267   3.543   2.244
   48SL       C  712   1.412   3.528   2.202
   48SL       H  713   1.320   3.231   2.365
   48SL       H  714   1.309   3.375   2.470
   48SL       H  715   1.118   3.404   2.322
   48SL       H  716   1.210   3.345   2.182
   48SL       H  717   1.260   3.606   2.335
   48SL       H  718   1.208   3.592   2.166
   48SL       H  719   1.470   3.620   2.216
   48SL       H  720   1.420   3.494   2.099
   49SL       O  721   3.191   2.651   1.521
   49SL       S  722   3.251   2.781   1.504
   49SL       O  723   3.178   2.894   1.450
   49SL       C  724   3.326   2.829   1.659
   49SL       C  725   3.470   2.864   1.624
   49SL       C  726   3.514   2.763   1.517
   49SL       C  727   3.404   2.764   1.413
   49SL       H  728   3.272   2.914   1.702
   49SL       H  729   3.322   2.744   1.727
   49SL       H  730   3.535   2.859   1.713
   49SL       H  731   3.476   2.966   1.584
   49SL       H  732   3.523   2.663   1.563
   49SL       H  733   3.610   2.789   1.474
   49SL       H  734   3.401   2.671   1.354
   49SL       H  735   3.413   2.850   1.347
   50SL       O  736   0.491   3.232   3.139
   50SL       S  737   0.461   3.100   3.191
   50SL       O  738   0.533   3.045   3.304
   50SL       C  739   0.286   3.090   3.222
   50SL       C  740   0.240   2.966   3.147
   50SL       C  741   0.320   2.962   3.017
   50SL       C  742   0.465   2.983   3.057
   50SL       H  743   0.268   3.084   3.330
   50SL       H  744   0.239   3.180   3.181
   50SL       H  745   0.132   2.969   3.127
   50SL       H  746   0.261   2.876   3.206
   50SL       H  747   0.287   3.044   2.951
   50SL       H  748   0.306   2.869   2.963
   50SL       H  749   0.527   3.021   2.975
   50SL       H  750   0.508   2.890   3.095
   51SL       O  751   2.656   1.388   1.963
   51SL       S  752   2.565   1.309   1.885
   51SL       O  753   2.567   1.311   1.740
   51SL       C  754   2.574   1.140   1.940
   51SL       C  755   2.430   1.100   1.971
   51SL       C  756   2.365   1.223   2.033
   51SL       C  757   2.398   1.339   1.940
   51SL       H  758   2.619   1.077   1.863
   51SL       H  759   2.636   1.137   2.030
   51SL       H  760   2.426   1.014   2.039
   51SL       H  761   2.378   1.072   1.879
   51SL       H  762   2.407   1.242   2.133
   51SL       H  763   2.257   1.211   2.044
   51SL       H  764   2.393   1.436   1.990
   51SL       H  765   2.333   1.338   1.852
   52SL       O  766   0.693   1.768   1.532
   52SL       S  767   0.805   1.714   1.605
   52SL       O  768   0.849   1.770   1.731
   52SL       C  769   0.779   1.539   1.626
   52SL       C  770   0.905   1.473   1.572
   52SL       C  771   0.947   1.555   1.450
   52SL       C  772   0.945   1.700   1.495
   52SL       H  773   0.761   1.516   1.731
   52SL       H  774   0.691   1.510   1.567
   52SL       H  775   0.887   1.368   1.545
   52SL       H  776   0.984   1.475   1.648
   52SL       H  777   0.875   1.540   1.369
   52SL       H  778   1.046   1.526   1.413
   52SL       H  779   0.934   1.770   1.412
   52SL       H  780   1.035   1.724   1.553
   53SL       O  781   2.648   2.441   2.770
   53SL       S  782   2.705   2.345   2.862
   53SL       O  783   2.630   2.294   2.975
   53SL       C  784   2.767   2.207   2.767
   53SL       C  785   2.912   2.191   2.812
   53SL       C  786   2.966   2.332   2.833
   53SL       C  787   2.863   2.403   2.918
   53SL       H  788   2.707   2.118   2.787
   53SL       H  789   2.761   2.233   2.661
   53SL       H  790   2.971   2.136   2.737
   53SL       H  791   2.916   2.135   2.906
   53SL       H  792   2.976   2.382   2.735
   53SL       H  793   3.064   2.332   2.880
   53SL       H  794   2.868   2.512   2.908
   53SL       H  795   2.874   2.375   3.024
   54SL       O  796   0.925   2.245   3.545
   54SL       S  797   0.878   2.238   3.408
   54SL       O  798   0.968   2.253   3.295
   54SL       C  799   0.784   2.088   3.388
   54SL       C  800   0.650   2.132   3.330
   54SL       C  801   0.616   2.265   3.399
   54SL       C  802   0.741   2.350   3.388
   54SL       H  803   0.838   2.019   3.322
   54SL       H  804   0.771   2.042   3.486
   54SL       H  805   0.572   2.057   3.347
   54SL       H  806   0.659   2.148   3.222
   54SL       H  807   0.592   2.246   3.505
   54SL       H  808   0.530   2.313   3.353
   54SL       H  809   0.746   2.428   3.464
   54SL       H  810   0.749   2.395   3.288
   55SL       O  811   0.728   1.377   1.394
   55SL       S  812   0.607   1.302   1.418
   55SL       O  813   0.603   1.193   1.513
   55SL       C  814   0.476   1.417   1.456
   55SL       C  815   0.364   1.382   1.358
   55SL       C  816   0.432   1.345   1.227
   55SL       C  817   0.541   1.247   1.262
   55SL       H  818   0.445   1.406   1.560
   55SL       H  819   0.513   1.518   1.438
   55SL       H  820   0.294   1.466   1.346
   55SL       H  821   0.307   1.296   1.396
   55SL       H  822   0.476   1.436   1.182
   55SL       H  823   0.362   1.304   1.154
   55SL       H  824   0.621   1.242   1.188
   55SL       H  825   0.499   1.146   1.278
   56SL       O  826   2.172   1.432   0.661
   56SL       S  827   2.146   1.514   0.545
   56SL       O  828   2.014   1.526   0.487
   56SL       C  829   2.211   1.677   0.576
   56SL       C  830   2.302   1.707   0.458
   56SL       C  831   2.372   1.575   0.424
   56SL       C  832   2.262   1.471   0.416
   56SL       H  833   2.129   1.749   0.585
   56SL       H  834   2.268   1.674   0.670
   56SL       H  835   2.375   1.785   0.482
   56SL       H  836   2.243   1.741   0.372
   56SL       H  837   2.443   1.549   0.504
   56SL       H  838   2.428   1.581   0.331
   56SL       H  839   2.299   1.369   0.432
   56SL       H  840   2.209   1.476   0.321
   57SL       O  841   0.716   1.880   3.194
   57SL       S  842   0.818   1.784   3.156
   57SL       O  843   0.793   1.682   3.056
   57SL       C  844   0.966   1.873   3.112
   57SL       C  845   1.076   1.811   3.197
   57SL       C  846   1.013   1.780   3.332
   57SL       C  847   0.884   1.707   3.302
   57SL       H  848   0.985   1.864   3.004
   57SL       H  849   0.951   1.979   3.138
   57SL       H  850   1.162   1.879   3.207
   57SL       H  851   1.112   1.718   3.151
   57SL       H  852   0.991   1.875   3.385
   57SL       H  853   1.079   1.721   3.396
   57SL       H  854   0.811   1.714   3.384
   57SL       H  855   0.903   1.602   3.279
   58SL       O  856   2.999   3.370   3.314
   58SL       S  857   2.961   3.493   3.248
   58SL       O  858   3.023   3.620   3.282
   58SL       C  859   2.972   3.468   3.072
   58SL       C  860   2.836   3.510   3.018
   58SL       C  861   2.733   3.464   3.121
   58SL       C  862   2.784   3.512   3.255
   58SL       H  863   3.054   3.528   3.030
   58SL       H  864   2.990   3.362   3.053
   58SL       H  865   2.817   3.466   2.919
   58SL       H  866   2.832   3.619   3.007
   58SL       H  867   2.727   3.354   3.119
   58SL       H  868   2.633   3.503   3.099
   58SL       H  869   2.744   3.454   3.339
   58SL       H  870   2.762   3.618   3.270
   59SL       O  871   3.047   1.298   2.376
   59SL       S  872   2.963   1.414   2.395
   59SL       O  873   2.919   1.457   2.527
   59SL       C  874   3.038   1.553   2.312
   59SL       C  875   2.929   1.608   2.220
   59SL       C  876   2.852   1.486   2.167
   59SL       C  877   2.821   1.401   2.289
   59SL       H  878   3.072   1.627   2.385
   59SL       H  879   3.122   1.516   2.253
   59SL       H  880   2.971   1.667   2.139
   59SL       H  881   2.860   1.672   2.277
   59SL       H  882   2.917   1.430   2.098
   59SL       H  883   2.762   1.514   2.113
   59SL       H  884   2.803   1.296   2.264
   59SL       H  885   2.734   1.441   2.343
   60SL       O  886   1.042   0.825   2.545
   60SL       S  887   0.989   0.753   2.432
   60SL       O  888   1.014   0.611   2.414
   60SL       C  889   0.814   0.783   2.421
   60SL       C  890   0.791   0.832   2.278
   60SL       C  891   0.912   0.918   2.243
   60SL       C  892   1.034   0.838   2.282
   60SL       H  893   0.758   0.692   2.444
   60SL       H  894   0.789   0.861   2.493
   60SL       H  895   0.697   0.888   2.270
   60SL       H  896   0.786   0.746   2.210
   60SL       H  897   0.908   1.012   2.301
   60SL       H  898   0.913   0.946   2.137
   60SL       H  899   1.122   0.900   2.299
   60SL       H  900   1.056   0.762   2.206
   61SL       O  901   0.468   2.591   1.583
   61SL       S  902   0.425   2.707   1.658
   61SL       O  903   0.374   2.697   1.793
   61SL       C  904   0.556   2.828   1.655
   61SL       C  905   0.491   2.956   1.604
   61SL       C  906   0.390   2.913   1.497
   61SL       C  907   0.309   2.801   1.560
   61SL       H  908   0.599   2.840   1.755
   61SL       H  909   0.633   2.793   1.585
   61SL       H  910   0.565   3.026   1.563
   61SL       H  911   0.438   3.007   1.686
   61SL       H  912   0.444   2.876   1.409
   61SL       H  913   0.326   2.995   1.465
   61SL       H  914   0.263   2.735   1.486
   61SL       H  915   0.233   2.840   1.627
   62SL       O  916   1.068   1.192   1.771
   62SL       S  917   0.965   1.161   1.866
   62SL       O  918   0.993   1.091   1.990
   62SL       C  919   0.874   1.310   1.903
   62SL       C  920   0.728   1.274   1.877
   62SL       C  921   0.727   1.182   1.755
   62SL       C  922   0.832   1.076   1.782
   62SL       H  923   0.892   1.340   2.007
   62SL       H  924   0.907   1.388   1.835
   62SL       H  925   0.667   1.364   1.861
   62SL       H  926   0.686   1.221   1.964
   62SL       H  927   0.754   1.241   1.666
   62SL       H  928   0.629   1.138   1.738
   62SL       H  929   0.870   1.030   1.691
   62SL       H  930   0.793   0.999   1.850
   63SL       O  931   1.457   0.545   1.536
   63SL       S  932   1.595   0.585   1.519
   63SL       O  933   1.634   0.686   1.422
   63SL       C  934   1.661   0.629   1.678
   63SL       C  935   1.788   0.545   1.692
   63SL       C  936   1.757   0.409   1.628
   63SL       C  937   1.695   0.440   1.494
   63SL       H  938   1.681   0.736   1.683
   63SL       H  939   1.588   0.601   1.754
   63SL       H  940   1.817   0.534   1.797
   63SL       H  941   1.871   0.592   1.639
   63SL       H  942   1.684   0.355   1.692
   63SL       H  943   1.846   0.347   1.619
   63SL       H  944   1.633   0.358   1.455
   63SL       H  945   1.772   0.465   1.420
   64SL       O  946   0.924   3.505   3.343
   64SL       S  947   0.840   3.392   3.311
   64SL       O  948   0.762   3.387   3.189
   64SL       C  949   0.938   3.244   3.324
   64SL       C  950   0.859   3.153   3.419
   64SL       C  951   0.798   3.244   3.525
   64SL       C  952   0.733   3.358   3.449
   64SL       H  953   0.952   3.199   3.226
   64SL       H  954   1.034   3.270   3.368
   64SL       H  955   0.924   3.076   3.463
   64SL       H  956   0.779   3.102   3.364
   64SL       H  957   0.879   3.283   3.590
   64SL       H  958   0.727   3.192   3.589
   64SL       H  959   0.721   3.448   3.510
   64SL       H  960   0.635   3.327   3.409
   65SL       O  961   2.969   2.660   3.544
   65SL       S  962   3.012   2.572   3.438
   65SL       O  963   3.153   2.546   3.413
   65SL       C  964   2.926   2.417   3.455
   65SL       C  965   2.862   2.392   3.319
   65SL       C  966   2.816   2.529   3.268
   65SL       C  967   2.935   2.621   3.286
   65SL       H  968   2.997   2.338   3.483
   65SL       H  969   2.850   2.428   3.532
   65SL       H  970   2.779   2.321   3.326
   65SL       H  971   2.936   2.350   3.250
   65SL       H  972   2.731   2.563   3.329
   65SL       H  973   2.783   2.525   3.164
   65SL       H  974   2.906   2.727   3.291
   65SL       H  975   3.008   2.608   3.205
   66SL       O  976   2.499   1.951   1.238
   66SL       S  977   2.355   1.956   1.250
   66SL       O  978   2.269   1.973   1.135
   66SL       C  979   2.302   1.812   1.342
   66SL       C  980   2.218   1.867   1.456
   66SL       C  981   2.286   1.997   1.501
   66SL       C  982   2.312   2.076   1.374
   66SL       H  983   2.245   1.745   1.277
   66SL       H  984   2.391   1.761   1.380
   66SL       H  985   2.210   1.796   1.539
   66SL       H  986   2.116   1.890   1.421
   66SL       H  987   2.382   1.972   1.550
   66SL       H  988   2.225   2.053   1.572
   66SL       H  989   2.393   2.149   1.385
   66SL       H  990   2.221   2.127   1.341
   67SL       O  991   2.621   1.529   3.171
   67SL       S  992   2.568   1.465   3.053
   67SL       O  993   2.650   1.385   2.965
   67SL       C  994   2.424   1.371   3.100
   67SL       C  995   2.313   1.420   3.007
   67SL       C  996   2.335   1.570   2.990
   67SL       C  997   2.481   1.587   2.956
   67SL       H  998   2.444   1.264   3.089
   67SL       H  999   2.400   1.394   3.204
   67SL       H 1000   2.214   1.398   3.048
   67SL       H 1001   2.321   1.370   2.910
   67SL       H 1002   2.311   1.621   3.085
   67SL       H 1003   2.270   1.612   2.913
   67SL       H 1004   2.519   1.687   2.980
   67SL       H 1005   2.500   1.565   2.850
   68SL       O 1006   1.862   1.347   1.880
   68SL       S 1007   1.779   1.293   1.775
   68SL       O 1008   1.705   1.378   1.684
   68SL       C 1009   1.876   1.177   1.680
   68SL       C 1010   1.794   1.048   1.680
   68SL       C 1011   1.730   1.038   1.818
   68SL       C 1012   1.667   1.173   1.845
   68SL       H 1013   1.893   1.216   1.580
   68SL       H 1014   1.971   1.162   1.732
   68SL       H 1015   1.857   0.961   1.658
   68SL       H 1016   1.716   1.054   1.603
   68SL       H 1017   1.808   1.017   1.893
   68SL       H 1018   1.656   0.957   1.823
   68SL       H 1019   1.653   1.193   1.952
   68SL       H 1020   1.571   1.182   1.793
   69SL       O 1021   0.297   1.097   0.146
   69SL       S 1022   0.358   1.053   0.270
   69SL       O 1023   0.282   1.042   0.393
   69SL       C 1024   0.443   0.899   0.239
   69SL       C 1025   0.585   0.923   0.289
   69SL       C 1026   0.620   1.067   0.253
   69SL       C 1027   0.504   1.151   0.301
   69SL       H 1028   0.393   0.818   0.292
   69SL       H 1029   0.442   0.881   0.132
   69SL       H 1030   0.655   0.852   0.244
   69SL       H 1031   0.590   0.910   0.398
   69SL       H 1032   0.631   1.075   0.143
   69SL       H 1033   0.714   1.099   0.298
   69SL       H 1034   0.496   1.247   0.248
   69SL       H 1035   0.510   1.169   0.409
   70SL       O 1036   1.854   1.953   1.316
   70SL       S 1037   1.893   1.818   1.284
   70SL       O 1038   1.958   1.731   1.381
   70SL       C 1039   1.752   1.733   1.215
   70SL       C 1040   1.800   1.677   1.082
   70SL       C 1041   1.894   1.782   1.023
   70SL       C 1042   1.990   1.819   1.134
   70SL       H 1043   1.718   1.655   1.284
   70SL       H 1044   1.672   1.806   1.200
   70SL       H 1045   1.717   1.655   1.015
   70SL       H 1046   1.855   1.583   1.098
   70SL       H 1047   1.836   1.870   0.993
   70SL       H 1048   1.947   1.745   0.935
   70SL       H 1049   2.035   1.918   1.121
   70SL       H 1050   2.069   1.744   1.145
   71SL       O 1051   2.190   0.926   0.100
   71SL       S 1052   2.273   1.009   0.184
   71SL       O 1053   2.316   1.141   0.142
   71SL       C 1054   2.197   1.022   0.344
   71SL       C 1055   2.306   0.980   0.443
   71SL       C 1056   2.383   0.867   0.376
   71SL       C 1057   2.415   0.916   0.236
   71SL       H 1058   2.162   1.124   0.362
   71SL       H 1059   2.113   0.952   0.348
   71SL       H 1060   2.263   0.948   0.539
   71SL       H 1061   2.373   1.064   0.462
   71SL       H 1062   2.319   0.777   0.371
   71SL       H 1063   2.473   0.840   0.431
   71SL       H 1064   2.434   0.834   0.165
   71SL       H 1065   2.501   0.984   0.237
   72SL       O 1066   2.567   2.737   3.377
   72SL       S 1067   2.469   2.769   3.478
   72SL       O 1068   2.496   2.754   3.620
   72SL       C 1069   2.409   2.935   3.448
   72SL       C 1070   2.257   2.921   3.442
   72SL       C 1071   2.229   2.789   3.371
   72SL       C 1072   2.316   2.686   3.440
   72SL       H 1073   2.442   3.002   3.528
   72SL       H 1074   2.449   2.969   3.353
   72SL       H 1075   2.212   3.006   3.389
   72SL       H 1076   2.215   2.919   3.543
   72SL       H 1077   2.257   2.797   3.265
   72SL       H 1078   2.123   2.762   3.375
   72SL       H 1079   2.336   2.598   3.378
   72SL       H 1080   2.271   2.654   3.535
   73SL       O 1081   0.939   2.437   0.416
   73SL       S 1082   0.816   2.513   0.410
   73SL       O 1083   0.752   2.565   0.529
   73SL       C 1084   0.838   2.646   0.293
   73SL       C 1085   0.722   2.632   0.195
   73SL       C 1086   0.701   2.482   0.175
   73SL       C 1087   0.696   2.422   0.314
   73SL       H 1088   0.838   2.742   0.345
   73SL       H 1089   0.934   2.631   0.242
   73SL       H 1090   0.744   2.682   0.100
   73SL       H 1091   0.631   2.677   0.237
   73SL       H 1092   0.786   2.440   0.119
   73SL       H 1093   0.610   2.460   0.119
   73SL       H 1094   0.721   2.315   0.316
   73SL       H 1095   0.598   2.437   0.360
   74SL       O 1096   1.948   1.032   2.801
   74SL       S 1097   1.950   1.046   2.657
   74SL       O 1098   2.059   1.112   2.588
   74SL       C 1099   1.922   0.886   2.584
   74SL       C 1100   1.804   0.907   2.488
   74SL       C 1101   1.710   1.005   2.558
   74SL       C 1102   1.796   1.120   2.604
   74SL       H 1103   2.012   0.852   2.532
   74SL       H 1104   1.895   0.816   2.663
   74SL       H 1105   1.755   0.812   2.465
   74SL       H 1106   1.840   0.950   2.394
   74SL       H 1107   1.663   0.955   2.644
   74SL       H 1108   1.630   1.038   2.491
   74SL       H 1109   1.751   1.175   2.687
   74SL       H 1110   1.818   1.188   2.522
   75SL       O 1111   0.100   1.867   0.899
   75SL       S 1112   0.201   1.834   0.997
   75SL       O 1113   0.221   1.914   1.117
   75SL       C 1114   0.181   1.663   1.044
   75SL       C 1115   0.318   1.600   1.022
   75SL       C 1116   0.375   1.665   0.896
   75SL       C 1117   0.358   1.814   0.914
   75SL       H 1118   0.147   1.656   1.148
   75SL       H 1119   0.106   1.618   0.978
   75SL       H 1120   0.310   1.491   1.011
   75SL       H 1121   0.383   1.621   1.107
   75SL       H 1122   0.318   1.630   0.808
   75SL       H 1123   0.480   1.638   0.880
   75SL       H 1124   0.357   1.869   0.820
   75SL       H 1125   0.435   1.855   0.980
   76SL       O 1126   0.764   1.897   1.978
   76SL       S 1127   0.674   1.983   2.051
   76SL       O 1128   0.534   1.995   2.016
   76SL       C 1129   0.687   1.944   2.224
   76SL       C 1130   0.717   2.077   2.293
   76SL       C 1131   0.810   2.153   2.199
   76SL       C 1132   0.745   2.146   2.062
   76SL       H 1133   0.594   1.898   2.260
   76SL       H 1134   0.770   1.874   2.238
   76SL       H 1135   0.763   2.062   2.391
   76SL       H 1136   0.624   2.134   2.307
   76SL       H 1137   0.908   2.104   2.197
   76SL       H 1138   0.825   2.257   2.231
   76SL       H 1139   0.817   2.160   1.980
   76SL       H 1140   0.664   2.219   2.053
   77SL       O 1141   2.817   1.572   1.198
   77SL       S 1142   2.893   1.630   1.090
   77SL       O 1143   2.992   1.554   1.016
   77SL       C 1144   2.779   1.705   0.975
   77SL       C 1145   2.828   1.849   0.959
   77SL       C 1146   2.877   1.893   1.097
   77SL       C 1147   2.968   1.782   1.146
   77SL       H 1148   2.779   1.650   0.881
   77SL       H 1149   2.679   1.703   1.019
   77SL       H 1150   2.748   1.914   0.922
   77SL       H 1151   2.911   1.853   0.887
   77SL       H 1152   2.790   1.904   1.164
   77SL       H 1153   2.929   1.989   1.093
   77SL       H 1154   2.977   1.780   1.255
   77SL       H 1155   3.067   1.790   1.100
   78SL       O 1156   1.485   1.806   2.397
   78SL       S 1157   1.435   1.712   2.496
   78SL       O 1158   1.355   1.597   2.458
   78SL       C 1159   1.571   1.659   2.597
   78SL       C 1160   1.526   1.685   2.741
   78SL       C 1161   1.448   1.816   2.737
   78SL       C 1162   1.349   1.802   2.623
   78SL       H 1163   1.592   1.553   2.579
   78SL       H 1164   1.658   1.719   2.572
   78SL       H 1165   1.612   1.692   2.809
   78SL       H 1166   1.461   1.604   2.776
   78SL       H 1167   1.517   1.900   2.717
   78SL       H 1168   1.397   1.837   2.832
   78SL       H 1169   1.315   1.899   2.584
   78SL       H 1170   1.262   1.743   2.653
   79SL       O 1171   2.036   2.547   1.150
   79SL       S 1172   2.092   2.644   1.058
   79SL       O 1173   2.171   2.603   0.944
   79SL       C 1174   1.961   2.751   1.003
   79SL       C 1175   2.011   2.893   1.031
   79SL       C 1176   2.087   2.885   1.163
   79SL       C 1177   2.182   2.767   1.150
   79SL       H 1178   1.940   2.734   0.897
   79SL       H 1179   1.871   2.729   1.062
   79SL       H 1180   1.928   2.964   1.036
   79SL       H 1181   2.079   2.925   0.951
   79SL       H 1182   2.016   2.867   1.245
   79SL       H 1183   2.141   2.977   1.185
   79SL       H 1184   2.212   2.726   1.247
   79SL       H 1185   2.270   2.794   1.091
   80SL       O 1186   3.049   0.437   1.082
   80SL       S 1187   3.038   0.576   1.120
   80SL       O 1188   3.020   0.617   1.257
   80SL       C 1189   3.177   0.664   1.051
   80SL       C 1190   3.116   0.779   0.973
   80SL       C 1191   2.989   0.725   0.909
   80SL       C 1192   2.913   0.654   1.019
   80SL       H 1193   3.244   0.697   1.131
   80SL       H 1194   3.231   0.596   0.984
   80SL       H 1195   3.186   0.818   0.897
   80SL       H 1196   3.091   0.862   1.041
   80SL       H 1197   3.016   0.653   0.829
   80SL       H 1198   2.929   0.804   0.863
   80SL       H 1199   2.844   0.579   0.982
   80SL       H 1200   2.860   0.726   1.082
   81SL       O 1201   3.075   1.812   3.158
   81SL       S 1202   3.128   1.924   3.234
   81SL       O 1203   3.110   1.933   3.378
   81SL       C 1204   3.300   1.943   3.195
   81SL       C 1205   3.316   2.089   3.153
   81SL       C 1206   3.189   2.123   3.075
   81SL       C 1207   3.073   2.076   3.160
   81SL       H 1208   3.362   1.917   3.282
   81SL       H 1209   3.324   1.876   3.113
   81SL       H 1210   3.406   2.103   3.093
   81SL       H 1211   3.323   2.153   3.242
   81SL       H 1212   3.190   2.070   2.978
   81SL       H 1213   3.183   2.230   3.053
   81SL       H 1214   2.982   2.058   3.101
   81SL       H 1215   3.052   2.147   3.240
   82SL       O 1216   0.587   2.076   1.375
   82SL       S 1217   0.688   2.154   1.443
   82SL       O 1218   0.751   2.268   1.380
   82SL       C 1219   0.624   2.203   1.602
   82SL       C 1220   0.730   2.156   1.702
   82SL       C 1221   0.782   2.022   1.651
   82SL       C 1222   0.814   2.044   1.504
   82SL       H 1223   0.609   2.311   1.605
   82SL       H 1224   0.530   2.151   1.619
   82SL       H 1225   0.687   2.147   1.803
   82SL       H 1226   0.812   2.229   1.707
   82SL       H 1227   0.703   1.946   1.661
   82SL       H 1228   0.869   1.988   1.707
   82SL       H 1229   0.814   1.951   1.446
   82SL       H 1230   0.911   2.095   1.493
   83SL       O 1231   1.994   2.616   0.719
   83SL       S 1232   1.986   2.706   0.607
   83SL       O 1233   2.028   2.666   0.474
   83SL       C 1234   1.821   2.772   0.598
   83SL       C 1235   1.839   2.924   0.595
   83SL       C 1236   1.956   2.954   0.689
   83SL       C 1237   2.067   2.859   0.649
   83SL       H 1238   1.770   2.735   0.509
   83SL       H 1239   1.767   2.741   0.688
   83SL       H 1240   1.748   2.976   0.627
   83SL       H 1241   1.864   2.957   0.494
   83SL       H 1242   1.926   2.935   0.793
   83SL       H 1243   1.988   3.058   0.682
   83SL       H 1244   2.139   2.842   0.730
   83SL       H 1245   2.119   2.895   0.560
   84SL       O 1246   0.179   1.681   0.349
   84SL       S 1247   0.292   1.592   0.360
   84SL       O 1248   0.402   1.596   0.266
   84SL       C 1249   0.357   1.602   0.526
   84SL       C 1250   0.360   1.458   0.576
   84SL       C 1251   0.235   1.390   0.519
   84SL       C 1252   0.233   1.424   0.372
   84SL       H 1253   0.456   1.648   0.525
   84SL       H 1254   0.288   1.662   0.586
   84SL       H 1255   0.362   1.453   0.685
   84SL       H 1256   0.450   1.407   0.538
   84SL       H 1257   0.146   1.431   0.569
   84SL       H 1258   0.236   1.282   0.536
   84SL       H 1259   0.133   1.417   0.328
   84SL       H 1260   0.302   1.360   0.316
   85SL       O 1261   1.767   0.648   0.738
   85SL       S 1262   1.905   0.689   0.728
   85SL       O 1263   1.988   0.652   0.615
   85SL       C 1264   1.913   0.866   0.750
   85SL       C 1265   2.015   0.887   0.861
   85SL       C 1266   1.994   0.773   0.961
   85SL       C 1267   1.990   0.646   0.878
   85SL       H 1268   1.942   0.914   0.656
   85SL       H 1269   1.814   0.901   0.781
   85SL       H 1270   2.002   0.985   0.909
   85SL       H 1271   2.117   0.882   0.820
   85SL       H 1272   1.898   0.787   1.013
   85SL       H 1273   2.072   0.770   1.036
   85SL       H 1274   1.938   0.564   0.928
   85SL       H 1275   2.091   0.614   0.851
   86SL       O 1276   2.173   2.376   1.950
   86SL       S 1277   2.076   2.356   2.055
   86SL       O 1278   2.114   2.350   2.194
   86SL       C 1279   1.946   2.476   2.035
   86SL       C 1280   1.817   2.395   2.031
   86SL       C 1281   1.849   2.267   1.955
   86SL       C 1282   1.976   2.213   2.016
   86SL       H 1283   1.948   2.548   2.118
   86SL       H 1284   1.962   2.528   1.940
   86SL       H 1285   1.735   2.451   1.984
   86SL       H 1286   1.785   2.370   2.134
   86SL       H 1287   1.865   2.292   1.848
   86SL       H 1288   1.768   2.195   1.960
   86SL       H 1289   2.032   2.147   1.948
   86SL       H 1290   1.956   2.160   2.110
   87SL       O 1291   2.758   2.552   1.349
   87SL       S 1292   2.878   2.619   1.393
   87SL       O 1293   2.913   2.629   1.533
   87SL       C 1294   3.016   2.552   1.303
   87SL       C 1295   3.086   2.673   1.242
   87SL       C 1296   2.975   2.769   1.200
   87SL       C 1297   2.883   2.782   1.320
   87SL       H 1298   3.082   2.496   1.371
   87SL       H 1299   2.978   2.486   1.225
   87SL       H 1300   3.149   2.644   1.157
   87SL       H 1301   3.151   2.721   1.316
   87SL       H 1302   2.920   2.727   1.115
   87SL       H 1303   3.014   2.866   1.169
   87SL       H 1304   2.782   2.813   1.293
   87SL       H 1305   2.925   2.850   1.395
   88SL       O 1306   0.939   1.110   3.452
   88SL       S 1307   0.853   1.032   3.366
   88SL       O 1308   0.851   0.887   3.371
   88SL       C 1309   0.686   1.093   3.383
   88SL       C 1310   0.640   1.123   3.241
   88SL       C 1311   0.762   1.179   3.168
   88SL       C 1312   0.876   1.084   3.197
   88SL       H 1313   0.624   1.018   3.433
   88SL       H 1314   0.689   1.184   3.443
   88SL       H 1315   0.556   1.193   3.240
   88SL       H 1316   0.607   1.030   3.192
   88SL       H 1317   0.785   1.279   3.208
   88SL       H 1318   0.744   1.189   3.061
   88SL       H 1319   0.974   1.130   3.186
   88SL       H 1320   0.870   0.995   3.134
   89SL       O 1321   2.616   1.147   0.719
   89SL       S 1322   2.563   1.184   0.848
   89SL       O 1323   2.579   1.100   0.965
   89SL       C 1324   2.620   1.349   0.887
   89SL       C 1325   2.494   1.428   0.920
   89SL       C 1326   2.386   1.378   0.823
   89SL       C 1327   2.391   1.226   0.831
   89SL       H 1328   2.690   1.345   0.971
   89SL       H 1329   2.670   1.389   0.799
   89SL       H 1330   2.510   1.535   0.909
   89SL       H 1331   2.462   1.408   1.023
   89SL       H 1332   2.411   1.411   0.721
   89SL       H 1333   2.287   1.416   0.848
   89SL       H 1334   2.350   1.178   0.741
   89SL       H 1335   2.338   1.190   0.919
   90SL       O 1336   3.116   1.255   2.171
   90SL       S 1337   3.100   1.131   2.098
   90SL       O 1338   3.186   1.097   1.986
   90SL       C 1339   3.101   0.997   2.215
   90SL       C 1340   2.973   0.919   2.186
   90SL       C 1341   2.867   1.023   2.151
   90SL       C 1342   2.930   1.114   2.049
   90SL       H 1343   3.191   0.936   2.203
   90SL       H 1344   3.098   1.039   2.316
   90SL       H 1345   2.943   0.858   2.272
   90SL       H 1346   2.988   0.852   2.101
   90SL       H 1347   2.840   1.080   2.242
   90SL       H 1348   2.775   0.977   2.113
   90SL       H 1349   2.883   1.213   2.044
   90SL       H 1350   2.929   1.068   1.949
   91SL       O 1351   3.203   0.861   1.420
   91SL       S 1352   3.305   0.960   1.449
   91SL       O 1353   3.307   1.033   1.574
   91SL       C 1354   3.465   0.885   1.424
   91SL       C 1355   3.538   0.979   1.328
   91SL       C 1356   3.432   1.030   1.230
   91SL       C 1357   3.315   1.076   1.314
   91SL       H 1358   3.517   0.874   1.519
   91SL       H 1359   3.450   0.787   1.378
   91SL       H 1360   3.620   0.928   1.277
   91SL       H 1361   3.580   1.064   1.383
   91SL       H 1362   3.401   0.947   1.164
   91SL       H 1363   3.470   1.110   1.166
   91SL       H 1364   3.221   1.076   1.259
   91SL       H 1365   3.334   1.175   1.357
   92SL       O 1366   1.281   1.836   1.462
   92SL       S 1367   1.313   1.697   1.440
   92SL       O 1368   1.237   1.614   1.349
   92SL       C 1369   1.486   1.685   1.400
   92SL       C 1370   1.542   1.583   1.499
   92SL       C 1371   1.470   1.609   1.631
   92SL       C 1372   1.323   1.615   1.598
   92SL       H 1373   1.498   1.653   1.296
   92SL       H 1374   1.532   1.783   1.415
   92SL       H 1375   1.651   1.594   1.510
   92SL       H 1376   1.521   1.481   1.465
   92SL       H 1377   1.504   1.705   1.673
   92SL       H 1378   1.492   1.531   1.705
   92SL       H 1379   1.265   1.670   1.672
   92SL       H 1380   1.281   1.514   1.586
   93SL       O 1381   0.752   0.187   1.510
   93SL       S 1382   0.826   0.216   1.390
   93SL       O 1383   0.787   0.163   1.260
   93SL       C 1384   0.845   0.393   1.376
   93SL       C 1385   0.995   0.416   1.359
   93SL       C 1386   1.064   0.312   1.448
   93SL       C 1387   0.999   0.180   1.416
   93SL       H 1388   0.787   0.431   1.292
   93SL       H 1389   0.809   0.438   1.469
   93SL       H 1390   1.023   0.518   1.387
   93SL       H 1391   1.024   0.399   1.254
   93SL       H 1392   1.047   0.338   1.554
   93SL       H 1393   1.172   0.309   1.431
   93SL       H 1394   1.009   0.107   1.497
   93SL       H 1395   1.039   0.138   1.323
   94SL       O 1396   2.160   2.985   2.000
   94SL       S 1397   2.043   3.008   1.918
   94SL       O 1398   2.015   3.137   1.859
   94SL       C 1399   2.039   2.884   1.790
   94SL       C 1400   1.901   2.821   1.801
   94SL       C 1401   1.869   2.814   1.950
   94SL       C 1402   1.898   2.952   2.005
   94SL       H 1403   2.057   2.930   1.693
   94SL       H 1404   2.118   2.811   1.812
   94SL       H 1405   1.899   2.721   1.755
   94SL       H 1406   1.827   2.883   1.750
   94SL       H 1407   1.934   2.739   1.998
   94SL       H 1408   1.765   2.785   1.968
   94SL       H 1409   1.918   2.951   2.113
   94SL       H 1410   1.817   3.021   1.983
   95SL       O 1411   1.581   3.153   1.221
   95SL       S 1412   1.636   3.157   1.088
   95SL       O 1413   1.773   3.118   1.061
   95SL       C 1414   1.527   3.067   0.979
   95SL       C 1415   1.496   3.165   0.865
   95SL       C 1416   1.485   3.303   0.929
   95SL       C 1417   1.607   3.318   1.017
   95SL       H 1418   1.576   2.976   0.944
   95SL       H 1419   1.437   3.042   1.034
   95SL       H 1420   1.405   3.137   0.813
   95SL       H 1421   1.578   3.165   0.792
   95SL       H 1422   1.393   3.307   0.991
   95SL       H 1423   1.478   3.382   0.855
   95SL       H 1424   1.593   3.391   1.098
   95SL       H 1425   1.695   3.345   0.958
   96SL       O 1426   3.561   1.238   2.542
   96SL       S 1427   3.447   1.309   2.595
   96SL       O 1428   3.422   1.449   2.564
   96SL       C 1429   3.300   1.215   2.558
   96SL       C 1430   3.229   1.198   2.692
   96SL       C 1431   3.340   1.177   2.796
   96SL       C 1432   3.441   1.287   2.772
   96SL       H 1433   3.238   1.269   2.485
   96SL       H 1434   3.330   1.119   2.517
   96SL       H 1435   3.160   1.113   2.690
   96SL       H 1436   3.172   1.288   2.717
   96SL       H 1437   3.387   1.078   2.780
   96SL       H 1438   3.302   1.179   2.898
   96SL       H 1439   3.541   1.263   2.809
   96SL       H 1440   3.407   1.382   2.816
   97SL       O 1441   3.492   3.274   1.115
   97SL       S 1442   3.437   3.146   1.154
   97SL       O 1443   3.449   3.095   1.289
   97SL       C 1444   3.265   3.142   1.106
   97SL       C 1445   3.251   3.015   1.022
   97SL       C 1446   3.379   3.003   0.941
   97SL       C 1447   3.493   3.022   1.040
   97SL       H 1448   3.201   3.142   1.194
   97SL       H 1449   3.244   3.231   1.045
   97SL       H 1450   3.162   3.020   0.958
   97SL       H 1451   3.240   2.928   1.088
   97SL       H 1452   3.382   3.082   0.865
   97SL       H 1453   3.386   2.907   0.890
   97SL       H 1454   3.586   3.055   0.992
   97SL       H 1455   3.511   2.930   1.096
   98SL       O 1456   2.070   1.958   3.047
   98SL       S 1457   1.964   1.970   3.143
   98SL       O 1458   1.987   1.955   3.286
   98SL       C 1459   1.877   2.123   3.114
   98SL       C 1460   1.731   2.084   3.100
   98SL       C 1461   1.729   1.951   3.025
   98SL       C 1462   1.830   1.862   3.096
   98SL       H 1463   1.894   2.193   3.197
   98SL       H 1464   1.915   2.167   3.021
   98SL       H 1465   1.674   2.161   3.047
   98SL       H 1466   1.685   2.071   3.199
   98SL       H 1467   1.761   1.968   2.921
   98SL       H 1468   1.630   1.906   3.023
   98SL       H 1469   1.868   1.782   3.032
   98SL       H 1470   1.787   1.820   3.187
   99SL       O 1471   1.007   1.719   0.351
   99SL       S 1472   0.997   1.798   0.230
   99SL       O 1473   1.028   1.743   0.100
   99SL       C 1474   0.835   1.872   0.225
   99SL       C 1475   0.860   2.021   0.206
   99SL       C 1476   0.984   2.054   0.289
   99SL       C 1477   1.088   1.949   0.252
   99SL       H 1478   0.776   1.828   0.143
   99SL       H 1479   0.785   1.853   0.320
   99SL       H 1480   0.774   2.081   0.237
   99SL       H 1481   0.880   2.043   0.100
   99SL       H 1482   0.959   2.047   0.396
   99SL       H 1483   1.021   2.155   0.270
   99SL       H 1484   1.164   1.936   0.330
   99SL       H 1485   1.136   1.973   0.157
  100SL       O 1486   0.657   0.538   2.054
  100SL       S 1487   0.564   0.532   1.945
  100SL       O 1488   0.605   0.496   1.810
  100SL       C 1489   0.426   0.429   1.993
  100SL       C 1490   0.302   0.514   1.969
  100SL       C 1491   0.341   0.658   2.007
  100SL       C 1492   0.472   0.685   1.937
  100SL       H 1493   0.426   0.337   1.935
  100SL       H 1494   0.437   0.406   2.100
  100SL       H 1495   0.217   0.479   2.027
  100SL       H 1496   0.274   0.511   1.863
  100SL       H 1497   0.354   0.664   2.116
  100SL       H 1498   0.264   0.730   1.978
  100SL       H 1499   0.530   0.765   1.985
  100SL       H 1500   0.456   0.709   1.831
  101SL       O 1501   1.978   1.224   0.565
  101SL       S 1502   1.880   1.246   0.669
  101SL       O 1503   1.774   1.151   0.695
  101SL       C 1504   1.966   1.280   0.821
  101SL       C 1505   1.907   1.412   0.871
  101SL       C 1506   1.883   1.497   0.747
  101SL       C 1507   1.809   1.408   0.650
  101SL       H 1508   1.952   1.198   0.892
  101SL       H 1509   2.073   1.291   0.799
  101SL       H 1510   1.975   1.462   0.942
  101SL       H 1511   1.812   1.393   0.923
  101SL       H 1512   1.979   1.528   0.705
  101SL       H 1513   1.826   1.588   0.770
  101SL       H 1514   1.819   1.441   0.546
  101SL       H 1515   1.703   1.402   0.675
  102SL       O 1516   0.509   1.676   1.610
  102SL       S 1517   0.457   1.727   1.735
  102SL       O 1518   0.508   1.683   1.863
  102SL       C 1519   0.459   1.905   1.729
  102SL       C 1520   0.316   1.947   1.762
  102SL       C 1521   0.225   1.844   1.696
  102SL       C 1522   0.279   1.709   1.735
  102SL       H 1523   0.532   1.944   1.800
  102SL       H 1524   0.486   1.935   1.627
  102SL       H 1525   0.295   2.049   1.726
  102SL       H 1526   0.301   1.946   1.870
  102SL       H 1527   0.229   1.857   1.586
  102SL       H 1528   0.121   1.856   1.726
  102SL       H 1529   0.250   1.629   1.665
  102SL       H 1530   0.249   1.682   1.836
  103SL       O 1531   2.034   3.264   3.101
  103SL       S 1532   2.149   3.220   3.175
  103SL       O 1533   2.147   3.204   3.319
  103SL       C 1534   2.209   3.069   3.101
  103SL       C 1535   2.357   3.095   3.072
  103SL       C 1536   2.366   3.241   3.028
  103SL       C 1537   2.289   3.321   3.130
  103SL       H 1538   2.193   2.985   3.169
  103SL       H 1539   2.154   3.052   3.008
  103SL       H 1540   2.395   3.026   2.996
  103SL       H 1541   2.416   3.080   3.163
  103SL       H 1542   2.320   3.251   2.928
  103SL       H 1543   2.470   3.274   3.020
  103SL       H 1544   2.255   3.417   3.092
  103SL       H 1545   2.349   3.336   3.221
  104SL       O 1546   0.973   0.456   3.366
  104SL       S 1547   1.040   0.493   3.488
  104SL       O 1548   0.979   0.474   3.618
  104SL       C 1549   1.202   0.418   3.489
  104SL       C 1550   1.299   0.533   3.514
  104SL       C 1551   1.242   0.653   3.437
  104SL       C 1552   1.096   0.662   3.475
  104SL       H 1553   1.207   0.341   3.567
  104SL       H 1554   1.219   0.373   3.391
  104SL       H 1555   1.400   0.508   3.481
  104SL       H 1556   1.303   0.557   3.621
  104SL       H 1557   1.253   0.635   3.329
  104SL       H 1558   1.296   0.745   3.461
  104SL       H 1559   1.036   0.715   3.401
  104SL       H 1560   1.083   0.709   3.573
  105SL       O 1561   0.909   3.620   1.086
  105SL       S 1562   0.950   3.492   1.034
  105SL       O 1563   0.888   3.368   1.078
  105SL       C 1564   0.944   3.499   0.856
  105SL       C 1565   1.083   3.454   0.810
  105SL       C 1566   1.182   3.511   0.911
  105SL       C 1567   1.127   3.476   1.048
  105SL       H 1568   0.864   3.435   0.818
  105SL       H 1569   0.926   3.603   0.827
  105SL       H 1570   1.104   3.489   0.708
  105SL       H 1571   1.088   3.345   0.811
  105SL       H 1572   1.187   3.621   0.899
  105SL       H 1573   1.282   3.472   0.897
  105SL       H 1574   1.163   3.542   1.127
  105SL       H 1575   1.149   3.372   1.074
  106SL       O 1576   3.370   0.744   1.619
  106SL       S 1577   3.285   0.696   1.725
  106SL       O 1578   3.330   0.690   1.863
  106SL       C 1579   3.131   0.786   1.718
  106SL       C 1580   3.023   0.679   1.713
  106SL       C 1581   3.078   0.566   1.626
  106SL       C 1582   3.217   0.538   1.679
  106SL       H 1583   3.122   0.851   1.806
  106SL       H 1584   3.131   0.846   1.627
  106SL       H 1585   2.929   0.719   1.672
  106SL       H 1586   3.002   0.641   1.814
  106SL       H 1587   3.084   0.601   1.521
  106SL       H 1588   3.015   0.478   1.628
  106SL       H 1589   3.282   0.490   1.605
  106SL       H 1590   3.212   0.476   1.769
  107SL       O 1591   0.389   2.980   1.170
  107SL       S 1592   0.477   2.981   1.056
  107SL       O 1593   0.578   3.084   1.039
  107SL       C 1594   0.556   2.822   1.044
  107SL       C 1595   0.528   2.775   0.901
  107SL       C 1596   0.387   2.822   0.867
  107SL       C 1597   0.381   2.968   0.907
  107SL       H 1598   0.662   2.830   1.066
  107SL       H 1599   0.508   2.754   1.116
  107SL       H 1600   0.538   2.667   0.891
  107SL       H 1601   0.600   2.822   0.832
  107SL       H 1602   0.314   2.764   0.926
  107SL       H 1603   0.363   2.808   0.762
  107SL       H 1604   0.279   3.003   0.926
  107SL       H 1605   0.428   3.032   0.831
  108SL       O 1606   1.554   3.069   2.959
  108SL       S 1607   1.642   3.051   3.072
  108SL       O 1608   1.624   3.124   3.195
  108SL       C 1609   1.653   2.877   3.108
  108SL       C 1610   1.802   2.846   3.109
  108SL       C 1611   1.864   2.930   2.997
  108SL       C 1612   1.811   3.071   3.017
  108SL       H 1613   1.605   2.856   3.205
  108SL       H 1614   1.602   2.822   3.029
  108SL       H 1615   1.821   2.739   3.094
  108SL       H 1616   1.847   2.875   3.205
  108SL       H 1617   1.831   2.891   2.900
  108SL       H 1618   1.973   2.928   2.999
  108SL       H 1619   1.813   3.131   2.926
  108SL       H 1620   1.866   3.122   3.097
  109SL       O 1621   1.096   2.775   3.100
  109SL       S 1622   0.997   2.838   3.183
  109SL       O 1623   1.017   2.969   3.241
  109SL       C 1624   0.840   2.837   3.098
  109SL       C 1625   0.742   2.772   3.195
  109SL       C 1626   0.820   2.661   3.266
  109SL       C 1627   0.949   2.725   3.313
  109SL       H 1628   0.812   2.938   3.070
  109SL       H 1629   0.852   2.776   3.007
  109SL       H 1630   0.654   2.732   3.143
  109SL       H 1631   0.707   2.846   3.268
  109SL       H 1632   0.841   2.580   3.195
  109SL       H 1633   0.763   2.619   3.349
  109SL       H 1634   1.029   2.652   3.329
  109SL       H 1635   0.933   2.783   3.404
  110SL       O 1636   1.400   2.109   1.772
  110SL       S 1637   1.351   2.031   1.662
  110SL       O 1638   1.353   1.886   1.663
  110SL       C 1639   1.186   2.086   1.622
  110SL       C 1640   1.190   2.118   1.473
  110SL       C 1641   1.327   2.180   1.446
  110SL       C 1642   1.428   2.088   1.511
  110SL       H 1643   1.113   2.007   1.646
  110SL       H 1644   1.165   2.176   1.680
  110SL       H 1645   1.108   2.185   1.444
  110SL       H 1646   1.179   2.026   1.414
  110SL       H 1647   1.331   2.280   1.493
  110SL       H 1648   1.346   2.192   1.339
  110SL       H 1649   1.522   2.138   1.535
  110SL       H 1650   1.447   2.000   1.448
  111SL       O 1651   2.914   3.101   1.000
  111SL       S 1652   2.784   3.097   0.938
  111SL       O 1653   2.727   3.213   0.870
  111SL       C 1654   2.778   2.957   0.827
  111SL       C 1655   2.655   2.879   0.869
  111SL       C 1656   2.648   2.888   1.022
  111SL       C 1657   2.665   3.035   1.055
  111SL       H 1658   2.773   2.992   0.723
  111SL       H 1659   2.869   2.898   0.843
  111SL       H 1660   2.660   2.775   0.836
  111SL       H 1661   2.565   2.924   0.826
  111SL       H 1662   2.730   2.830   1.066
  111SL       H 1663   2.554   2.849   1.061
  111SL       H 1664   2.701   3.052   1.157
  111SL       H 1665   2.571   3.090   1.040
  112SL       O 1666   0.864   2.104   2.979
  112SL       S 1667   0.943   2.173   2.880
  112SL       O 1668   0.918   2.310   2.843
  112SL       C 1669   1.115   2.155   2.923
  112SL       C 1670   1.182   2.098   2.798
  112SL       C 1671   1.082   2.000   2.738
  112SL       C 1672   0.949   2.073   2.732
  112SL       H 1673   1.157   2.252   2.952
  112SL       H 1674   1.123   2.085   3.006
  112SL       H 1675   1.277   2.049   2.822
  112SL       H 1676   1.202   2.178   2.726
  112SL       H 1677   1.073   1.911   2.803
  112SL       H 1678   1.113   1.965   2.639
  112SL       H 1679   0.863   2.006   2.729
  112SL       H 1680   0.946   2.141   2.646
  113SL       O 1681   2.711   2.016   2.547
  113SL       S 1682   2.605   1.930   2.594
  113SL       O 1683   2.535   1.955   2.718
  113SL       C 1684   2.486   1.909   2.463
  113SL       C 1685   2.471   1.758   2.447
  113SL       C 1686   2.611   1.699   2.468
  113SL       C 1687   2.664   1.761   2.595
  113SL       H 1688   2.392   1.958   2.490
  113SL       H 1689   2.527   1.954   2.372
  113SL       H 1690   2.431   1.732   2.348
  113SL       H 1691   2.403   1.718   2.523
  113SL       H 1692   2.675   1.727   2.383
  113SL       H 1693   2.609   1.590   2.474
  113SL       H 1694   2.773   1.760   2.601
  113SL       H 1695   2.621   1.712   2.683
  114SL       O 1696   0.581   3.501   0.448
  114SL       S 1697   0.488   3.442   0.541
  114SL       O 1698   0.393   3.522   0.616
  114SL       C 1699   0.401   3.311   0.459
  114SL       C 1700   0.419   3.188   0.548
  114SL       C 1701   0.562   3.197   0.603
  114SL       C 1702   0.578   3.338   0.655
  114SL       H 1703   0.295   3.337   0.446
  114SL       H 1704   0.447   3.295   0.361
  114SL       H 1705   0.403   3.095   0.493
  114SL       H 1706   0.348   3.191   0.631
  114SL       H 1707   0.633   3.179   0.521
  114SL       H 1708   0.581   3.123   0.680
  114SL       H 1709   0.682   3.370   0.660
  114SL       H 1710   0.531   3.349   0.754
  115SL       O 1711   2.581   1.760   0.555
  115SL       S 1712   2.659   1.639   0.553
  115SL       O 1713   2.622   1.522   0.630
  115SL       C 1714   2.684   1.590   0.383
  115SL       C 1715   2.835   1.574   0.368
  115SL       C 1716   2.898   1.685   0.452
  115SL       C 1717   2.830   1.678   0.587
  115SL       H 1718   2.629   1.498   0.362
  115SL       H 1719   2.646   1.671   0.319
  115SL       H 1720   2.865   1.581   0.263
  115SL       H 1721   2.866   1.476   0.405
  115SL       H 1722   2.879   1.782   0.404
  115SL       H 1723   3.006   1.673   0.461
  115SL       H 1724   2.835   1.773   0.642
  115SL       H 1725   2.871   1.597   0.648
  116SL       O 1726   3.369   0.615   2.658
  116SL       S 1727   3.301   0.651   2.780
  116SL       O 1728   3.356   0.621   2.911
  116SL       C 1729   3.260   0.825   2.773
  116SL       C 1730   3.110   0.832   2.800
  116SL       C 1731   3.049   0.710   2.731
  116SL       C 1732   3.133   0.591   2.773
  116SL       H 1733   3.319   0.880   2.847
  116SL       H 1734   3.283   0.861   2.673
  116SL       H 1735   3.067   0.925   2.763
  116SL       H 1736   3.091   0.826   2.908
  116SL       H 1737   3.055   0.724   2.622
  116SL       H 1738   2.944   0.697   2.757
  116SL       H 1739   3.127   0.508   2.703
  116SL       H 1740   3.105   0.558   2.874
  117SL       O 1741   1.081   1.058   2.578
  117SL       S 1742   1.122   1.152   2.476
  117SL       O 1743   1.033   1.195   2.370
  117SL       C 1744   1.190   1.296   2.557
  117SL       C 1745   1.328   1.315   2.495
  117SL       C 1746   1.384   1.175   2.473
  117SL       C 1747   1.275   1.096   2.404
  117SL       H 1748   1.124   1.382   2.541
  117SL       H 1749   1.198   1.274   2.664
  117SL       H 1750   1.393   1.375   2.560
  117SL       H 1751   1.319   1.366   2.399
  117SL       H 1752   1.408   1.129   2.571
  117SL       H 1753   1.477   1.176   2.415
  117SL       H 1754   1.285   0.988   2.418
  117SL       H 1755   1.272   1.120   2.297
  118SL       O 1756   0.648   0.708   3.268
  118SL       S 1757   0.553   0.684   3.374
  118SL       O 1758   0.594   0.675   3.513
  118SL       C 1759   0.422   0.804   3.361
  118SL       C 1760   0.293   0.722   3.358
  118SL       C 1761   0.325   0.597   3.277
  118SL       C 1762   0.454   0.542   3.334
  118SL       H 1763   0.425   0.874   3.445
  118SL       H 1764   0.435   0.859   3.267
  118SL       H 1765   0.210   0.779   3.314
  118SL       H 1766   0.264   0.694   3.460
  118SL       H 1767   0.338   0.624   3.171
  118SL       H 1768   0.244   0.523   3.282
  118SL       H 1769   0.508   0.478   3.263
  118SL       H 1770   0.435   0.487   3.426
  119SL       O 1771   0.619   3.620   1.103
  119SL       S 1772   0.522   3.520   1.065
  119SL       O 1773   0.467   3.514   0.930
  119SL       C 1774   0.585   3.360   1.109
  119SL       C 1775   0.475   3.296   1.194
  119SL       C 1776   0.415   3.409   1.278
  119SL       C 1777   0.387   3.522   1.181
  119SL       H 1778   0.607   3.302   1.019
  119SL       H 1779   0.676   3.374   1.168
  119SL       H 1780   0.514   3.215   1.257
  119SL       H 1781   0.397   3.254   1.129
  119SL       H 1782   0.489   3.441   1.354
  119SL       H 1783   0.325   3.378   1.330
  119SL       H 1784   0.382   3.620   1.231
  119SL       H 1785   0.294   3.505   1.126
  120SL       O 1786   2.669   0.625   2.345
  120SL       S 1787   2.647   0.670   2.480
  120SL       O 1788   2.676   0.586   2.595
  120SL       C 1789   2.730   0.827   2.501
  120SL       C 1790   2.623   0.921   2.555
  120SL       C 1791   2.494   0.884   2.483
  120SL       C 1792   2.481   0.734   2.495
  120SL       H 1793   2.815   0.815   2.570
  120SL       H 1794   2.766   0.860   2.404
  120SL       H 1795   2.650   1.026   2.537
  120SL       H 1796   2.611   0.907   2.663
  120SL       H 1797   2.502   0.913   2.377
  120SL       H 1798   2.407   0.935   2.525
  120SL       H 1799   2.418   0.690   2.417
  120SL       H 1800   2.444   0.705   2.594
  121SL       O 1801   1.079   2.327   1.814
  121SL       S 1802   1.154   2.400   1.715
  121SL       O 1803   1.146   2.367   1.574
  121SL       C 1804   1.122   2.574   1.735
  121SL       C 1805   1.260   2.638   1.748
  121SL       C 1806   1.346   2.540   1.828
  121SL       C 1807   1.325   2.404   1.763
  121SL       H 1808   1.066   2.612   1.650
  121SL       H 1809   1.065   2.587   1.828
  121SL       H 1810   1.255   2.736   1.796
  121SL       H 1811   1.304   2.652   1.648
  121SL       H 1812   1.311   2.538   1.932
  121SL       H 1813   1.451   2.568   1.829
  121SL       H 1814   1.347   2.321   1.831
  121SL       H 1815   1.386   2.395   1.672
  122SL       O 1816   0.392   0.291   1.061
  122SL       S 1817   0.379   0.418   1.128
  122SL       O 1818   0.333   0.428   1.265
  122SL       C 1819   0.534   0.506   1.113
  122SL       C 1820   0.496   0.642   1.055
  122SL       C 1821   0.384   0.616   0.955
  122SL       C 1822   0.283   0.529   1.027
  122SL       H 1823   0.582   0.515   1.211
  122SL       H 1824   0.598   0.451   1.044
  122SL       H 1825   0.582   0.691   1.007
  122SL       H 1826   0.460   0.709   1.134
  122SL       H 1827   0.424   0.562   0.867
  122SL       H 1828   0.338   0.709   0.919
  122SL       H 1829   0.220   0.471   0.959
  122SL       H 1830   0.220   0.589   1.093
  123SL       O 1831   2.040   2.299   0.933
  123SL       S 1832   2.058   2.164   0.885
  123SL       O 1833   1.990   2.051   0.946
  123SL       C 1834   2.029   2.161   0.709
  123SL       C 1835   2.154   2.097   0.649
  123SL       C 1836   2.272   2.147   0.732
  123SL       C 1837   2.233   2.127   0.877
  123SL       H 1838   1.938   2.105   0.687
  123SL       H 1839   2.018   2.264   0.675
  123SL       H 1840   2.165   2.122   0.543
  123SL       H 1841   2.147   1.987   0.658
  123SL       H 1842   2.287   2.255   0.712
  123SL       H 1843   2.364   2.095   0.708
  123SL       H 1844   2.287   2.193   0.945
  123SL       H 1845   2.246   2.023   0.907
  124SL       O 1846   0.487   1.371   2.727
  124SL       S 1847   0.571   1.452   2.642
  124SL       O 1848   0.586   1.425   2.500
  124SL       C 1849   0.524   1.623   2.664
  124SL       C 1850   0.654   1.695   2.699
  124SL       C 1851   0.734   1.599   2.787
  124SL       C 1852   0.733   1.466   2.716
  124SL       H 1853   0.478   1.661   2.573
  124SL       H 1854   0.453   1.629   2.747
  124SL       H 1855   0.634   1.790   2.750
  124SL       H 1856   0.711   1.717   2.608
  124SL       H 1857   0.684   1.590   2.885
  124SL       H 1858   0.835   1.635   2.805
  124SL       H 1859   0.750   1.381   2.783
  124SL       H 1860   0.806   1.465   2.635
  125SL       O 1861   1.465   3.592   3.269
  125SL       S 1862   1.445   3.474   3.188
  125SL       O 1863   1.412   3.346   3.247
  125SL       C 1864   1.325   3.512   3.062
  125SL       C 1865   1.392   3.473   2.931
  125SL       C 1866   1.540   3.510   2.946
  125SL       C 1867   1.584   3.453   3.079
  125SL       H 1868   1.232   3.457   3.080
  125SL       H 1869   1.305   3.619   3.065
  125SL       H 1870   1.346   3.524   2.845
  125SL       H 1871   1.383   3.365   2.915
  125SL       H 1872   1.549   3.620   2.946
  125SL       H 1873   1.600   3.472   2.863
  125SL       H 1874   1.671   3.504   3.120
  125SL       H 1875   1.604   3.346   3.071
  126SL       O 1876   1.262   0.189   0.619
  126SL       S 1877   1.171   0.283   0.681
  126SL       O 1878   1.073   0.357   0.604
  126SL       C 1879   1.088   0.201   0.816
  126SL       C 1880   1.111   0.290   0.937
  126SL       C 1881   1.253   0.345   0.923
  126SL       C 1882   1.264   0.397   0.782
  126SL       H 1883   0.981   0.188   0.793
  126SL       H 1884   1.134   0.103   0.830
  126SL       H 1885   1.097   0.235   1.031
  126SL       H 1886   1.039   0.373   0.937
  126SL       H 1887   1.325   0.263   0.940
  126SL       H 1888   1.274   0.422   0.997
  126SL       H 1889   1.367   0.401   0.746
  126SL       H 1890   1.217   0.495   0.772
  127SL       O 1891   2.901   2.917   3.004
  127SL       S 1892   2.866   3.057   2.993
  127SL       O 1893   2.913   3.155   3.089
  127SL       C 1894   2.906   3.112   2.828
  127SL       C 1895   2.777   3.175   2.776
  127SL       C 1896   2.663   3.088   2.829
  127SL       C 1897   2.689   3.072   2.977
  127SL       H 1898   2.989   3.183   2.831
  127SL       H 1899   2.933   3.024   2.769
  127SL       H 1900   2.776   3.179   2.666
  127SL       H 1901   2.767   3.277   2.813
  127SL       H 1902   2.664   2.990   2.779
  127SL       H 1903   2.565   3.134   2.811
  127SL       H 1904   2.641   2.983   3.020
  127SL       H 1905   2.658   3.161   3.033
  128SL       O 1906   0.891   2.441   1.824
  128SL       S 1907   0.796   2.546   1.851
  128SL       O 1908   0.787   2.665   1.768
  128SL       C 1909   0.634   2.473   1.865
  128SL       C 1910   0.580   2.521   1.999
  128SL       C 1911   0.700   2.523   2.095
  128SL       C 1912   0.810   2.595   2.022
  128SL       H 1913   0.571   2.505   1.781
  128SL       H 1914   0.645   2.365   1.864
  128SL       H 1915   0.500   2.456   2.036
  128SL       H 1916   0.540   2.623   1.990
  128SL       H 1917   0.730   2.419   2.116
  128SL       H 1918   0.676   2.570   2.190
  128SL       H 1919   0.910   2.570   2.059
  128SL       H 1920   0.796   2.704   2.026
  129SL       O 1921   2.919   0.384   2.453
  129SL       S 1922   2.982   0.423   2.329
  129SL       O 1923   2.935   0.375   2.201
  129SL       C 1924   2.991   0.601   2.324
  129SL       C 1925   3.138   0.632   2.297
  129SL       C 1926   3.218   0.528   2.375
  129SL       C 1927   3.157   0.394   2.341
  129SL       H 1928   2.925   0.640   2.246
  129SL       H 1929   2.961   0.640   2.422
  129SL       H 1930   3.164   0.734   2.328
  129SL       H 1931   3.160   0.622   2.190
  129SL       H 1932   3.209   0.548   2.483
  129SL       H 1933   3.325   0.531   2.351
  129SL       H 1934   3.177   0.318   2.417
  129SL       H 1935   3.192   0.359   2.244
  130SL       O 1936   0.999   1.099   0.349
  130SL       S 1937   1.094   1.097   0.458
  130SL       O 1938   1.237   1.102   0.435
  130SL       C 1939   1.049   1.226   0.573
  130SL       C 1940   1.038   1.155   0.708
  130SL       C 1941   0.977   1.018   0.680
  130SL       C 1942   1.057   0.960   0.565
  130SL       H 1943   1.124   1.305   0.573
  130SL       H 1944   0.952   1.266   0.543
  130SL       H 1945   0.977   1.213   0.778
  130SL       H 1946   1.138   1.143   0.752
  130SL       H 1947   0.871   1.031   0.650
  130SL       H 1948   0.979   0.953   0.768
  130SL       H 1949   1.002   0.883   0.510
  130SL       H 1950   1.152   0.919   0.601
  131SL       O 1951   0.301   2.903   2.340
  131SL       S 1952   0.327   3.045   2.346
  131SL       O 1953   0.291   3.134   2.238
  131SL       C 1954   0.260   3.108   2.499
  131SL       C 1955   0.376   3.181   2.566
  131SL       C 1956   0.501   3.098   2.536
  131SL       C 1957   0.499   3.071   2.388
  131SL       H 1958   0.175   3.174   2.478
  131SL       H 1959   0.227   3.023   2.559
  131SL       H 1960   0.359   3.192   2.673
  131SL       H 1961   0.387   3.281   2.523
  131SL       H 1962   0.496   3.004   2.593
  131SL       H 1963   0.592   3.150   2.566
  131SL       H 1964   0.557   2.983   2.360
  131SL       H 1965   0.534   3.158   2.331
  132SL       O 1966   1.302   1.592   2.959
  132SL       S 1967   1.236   1.504   2.866
  132SL       O 1968   1.278   1.492   2.728
  132SL       C 1969   1.229   1.341   2.938
  132SL       C 1970   1.082   1.301   2.933
  132SL       C 1971   1.002   1.429   2.961
  132SL       C 1972   1.061   1.535   2.871
  132SL       H 1973   1.293   1.272   2.882
  132SL       H 1974   1.263   1.348   3.042
  132SL       H 1975   1.059   1.222   3.005
  132SL       H 1976   1.057   1.264   2.833
  132SL       H 1977   1.016   1.457   3.067
  132SL       H 1978   0.896   1.415   2.944
  132SL       H 1979   1.042   1.637   2.907
  132SL       H 1980   1.022   1.525   2.769
  133SL       O 1981   1.881   1.216   0.367
  133SL       S 1982   1.791   1.106   0.391
  133SL       O 1983   1.795   1.029   0.514
  133SL       C 1984   1.624   1.161   0.363
  133SL       C 1985   1.566   1.062   0.263
  133SL       C 1986   1.679   1.028   0.166
  133SL       C 1987   1.799   0.994   0.253
  133SL       H 1988   1.569   1.163   0.457
  133SL       H 1989   1.628   1.262   0.320
  133SL       H 1990   1.480   1.105   0.210
  133SL       H 1991   1.533   0.971   0.315
  133SL       H 1992   1.702   1.116   0.104
  133SL       H 1993   1.653   0.945   0.100
  133SL       H 1994   1.894   1.006   0.201
  133SL       H 1995   1.791   0.892   0.292
  134SL       O 1996   2.811   2.749   2.100
  134SL       S 1997   2.875   2.878   2.117
  134SL       O 1998   2.804   2.992   2.171
  134SL       C 1999   3.026   2.854   2.209
  134SL       C 2000   3.134   2.919   2.123
  134SL       C 2001   3.098   2.888   1.978
  134SL       C 2002   2.952   2.925   1.963
  134SL       H 2003   3.017   2.900   2.308
  134SL       H 2004   3.043   2.747   2.219
  134SL       H 2005   3.234   2.880   2.149
  134SL       H 2006   3.135   3.028   2.139
  134SL       H 2007   3.112   2.781   1.959
  134SL       H 2008   3.160   2.943   1.908
  134SL       H 2009   2.903   2.873   1.880
  134SL       H 2010   2.939   3.033   1.952
  135SL       O 2011   2.250   2.476   2.755
  135SL       S 2012   2.144   2.546   2.824
  135SL       O 2013   2.126   2.689   2.810
  135SL       C 2014   1.990   2.464   2.791
  135SL       C 2015   1.930   2.435   2.928
  135SL       C 2016   2.047   2.398   3.019
  135SL       C 2017   2.152   2.506   2.998
  135SL       H 2018   1.926   2.528   2.730
  135SL       H 2019   2.012   2.371   2.738
  135SL       H 2020   1.856   2.354   2.923
  135SL       H 2021   1.880   2.525   2.967
  135SL       H 2022   2.087   2.300   2.988
  135SL       H 2023   2.017   2.391   3.123
  135SL       H 2024   2.253   2.473   3.024
  135SL       H 2025   2.127   2.596   3.054
  136SL       O 2026   1.283   0.608   1.203
  136SL       S 2027   1.353   0.628   1.078
  136SL       O 2028   1.283   0.640   0.952
  136SL       C 2029   1.464   0.767   1.097
  136SL       C 2030   1.600   0.714   1.054
  136SL       C 2031   1.608   0.570   1.106
  136SL       C 2032   1.480   0.503   1.062
  136SL       H 2033   1.430   0.850   1.035
  136SL       H 2034   1.464   0.796   1.202
  136SL       H 2035   1.681   0.776   1.095
  136SL       H 2036   1.609   0.714   0.945
  136SL       H 2037   1.615   0.571   1.216
  136SL       H 2038   1.696   0.518   1.067
  136SL       H 2039   1.454   0.417   1.124
  136SL       H 2040   1.484   0.474   0.957
  137SL       O 2041   1.397   1.720   1.872
  137SL       S 2042   1.319   1.659   1.977
  137SL       O 2043   1.354   1.674   2.117
  137SL       C 2044   1.148   1.706   1.955
  137SL       C 2045   1.071   1.574   1.953
  137SL       C 2046   1.160   1.474   1.879
  137SL       C 2047   1.297   1.486   1.942
  137SL       H 2048   1.116   1.772   2.036
  137SL       H 2049   1.140   1.758   1.859
  137SL       H 2050   0.974   1.586   1.904
  137SL       H 2051   1.054   1.539   2.055
  137SL       H 2052   1.165   1.502   1.772
  137SL       H 2053   1.121   1.372   1.885
  137SL       H 2054   1.377   1.452   1.875
  137SL       H 2055   1.302   1.431   2.036
  138SL       O 2056   3.234   2.706   0.419
  138SL       S 2057   3.370   2.714   0.371
  138SL       O 2058   3.419   2.628   0.265
  138SL       C 2059   3.406   2.884   0.330
  138SL       C 2060   3.533   2.917   0.408
  138SL       C 2061   3.520   2.845   0.542
  138SL       C 2062   3.481   2.703   0.510
  138SL       H 2063   3.419   2.894   0.222
  138SL       H 2064   3.322   2.945   0.363
  138SL       H 2065   3.544   3.025   0.420
  138SL       H 2066   3.621   2.880   0.354
  138SL       H 2067   3.441   2.894   0.602
  138SL       H 2068   3.613   2.850   0.600
  138SL       H 2069   3.431   2.652   0.593
  138SL       H 2070   3.568   2.644   0.478
  139SL       O 2071   0.552   1.817   0.155
  139SL       S 2072   0.495   1.945   0.188
  139SL       O 2073   0.534   2.066   0.118
  139SL       C 2074   0.317   1.931   0.184
  139SL       C 2075   0.270   1.983   0.319
  139SL       C 2076   0.374   1.936   0.421
  139SL       C 2077   0.509   1.973   0.363
  139SL       H 2078   0.277   1.988   0.100
  139SL       H 2079   0.292   1.825   0.172
  139SL       H 2080   0.170   1.947   0.344
  139SL       H 2081   0.267   2.093   0.318
  139SL       H 2082   0.366   1.827   0.433
  139SL       H 2083   0.358   1.982   0.519
  139SL       H 2084   0.590   1.912   0.404
  139SL       H 2085   0.531   2.079   0.379
  140SL       O 2086   1.126   2.517   0.712
  140SL       S 2087   1.030   2.484   0.814
  140SL       O 2088   1.064   2.489   0.955
  140SL       C 2089   0.882   2.580   0.787
  140SL       C 2090   0.769   2.478   0.783
  140SL       C 2091   0.825   2.355   0.712
  140SL       C 2092   0.958   2.325   0.778
  140SL       H 2093   0.870   2.653   0.867
  140SL       H 2094   0.892   2.631   0.691
  140SL       H 2095   0.681   2.518   0.732
  140SL       H 2096   0.739   2.451   0.885
  140SL       H 2097   0.840   2.378   0.605
  140SL       H 2098   0.757   2.270   0.718
  140SL       H 2099   1.025   2.268   0.715
  140SL       H 2100   0.943   2.273   0.873
  141SL       O 2101   1.831   0.791   2.047
  141SL       S 2102   1.947   0.834   1.973
  141SL       O 2103   1.943   0.855   1.830
  141SL       C 2104   2.014   0.979   2.051
  141SL       C 2105   2.161   0.947   2.076
  141SL       C 2106   2.165   0.799   2.116
  141SL       C 2107   2.084   0.726   2.011
  141SL       H 2108   2.001   1.066   1.986
  141SL       H 2109   1.961   0.995   2.145
  141SL       H 2110   2.203   1.011   2.155
  141SL       H 2111   2.219   0.962   1.985
  141SL       H 2112   2.120   0.787   2.215
  141SL       H 2113   2.268   0.761   2.121
  141SL       H 2114   2.046   0.630   2.047
  141SL       H 2115   2.141   0.711   1.920
  142SL       O 2116   0.865   1.830   2.493
  142SL       S 2117   0.946   1.808   2.376
  142SL       O 2118   0.981   1.916   2.286
  142SL       C 2119   1.095   1.723   2.424
  142SL       C 2120   1.101   1.600   2.334
  142SL       C 2121   0.957   1.552   2.317
  142SL       C 2122   0.876   1.675   2.281
  142SL       H 2123   1.182   1.788   2.412
  142SL       H 2124   1.085   1.693   2.529
  142SL       H 2125   1.165   1.522   2.377
  142SL       H 2126   1.143   1.628   2.236
  142SL       H 2127   0.922   1.510   2.413
  142SL       H 2128   0.949   1.474   2.241
  142SL       H 2129   0.770   1.664   2.304
  142SL       H 2130   0.888   1.699   2.175
  143SL       O 2131   3.370   2.348   0.533
  143SL       S 2132   3.493   2.344   0.607
  143SL       O 2133   3.618   2.391   0.551
  143SL       C 2134   3.467   2.424   0.764
  143SL       C 2135   3.512   2.322   0.869
  143SL       C 2136   3.469   2.185   0.816
  143SL       C 2137   3.517   2.180   0.672
  143SL       H 2138   3.523   2.517   0.769
  143SL       H 2139   3.360   2.445   0.774
  143SL       H 2140   3.468   2.343   0.967
  143SL       H 2141   3.621   2.326   0.880
  143SL       H 2142   3.360   2.177   0.820
  143SL       H 2143   3.511   2.104   0.875
  143SL       H 2144   3.461   2.108   0.612
  143SL       H 2145   3.624   2.157   0.667
  144SL       O 2146   0.620   2.043   0.592
  144SL       S 2147   0.727   1.997   0.677
  144SL       O 2148   0.851   2.071   0.692
  144SL       C 2149   0.660   1.963   0.839
  144SL       C 2150   0.702   1.820   0.871
  144SL       C 2151   0.693   1.743   0.739
  144SL       C 2152   0.765   1.828   0.636
  144SL       H 2153   0.699   2.035   0.912
  144SL       H 2154   0.551   1.971   0.833
  144SL       H 2155   0.638   1.775   0.948
  144SL       H 2156   0.805   1.818   0.907
  144SL       H 2157   0.587   1.732   0.710
  144SL       H 2158   0.736   1.643   0.746
  144SL       H 2159   0.734   1.807   0.533
  144SL       H 2160   0.874   1.815   0.645
  145SL       O 2161   1.894   1.669   2.236
  145SL       S 2162   1.773   1.699   2.162
  145SL       O 2163   1.707   1.827   2.172
  145SL       C 2164   1.801   1.660   1.990
  145SL       C 2165   1.687   1.566   1.952
  145SL       C 2166   1.663   1.477   2.073
  145SL       C 2167   1.654   1.570   2.192
  145SL       H 2168   1.801   1.752   1.931
  145SL       H 2169   1.897   1.610   1.982
  145SL       H 2170   1.712   1.507   1.863
  145SL       H 2171   1.596   1.624   1.930
  145SL       H 2172   1.748   1.408   2.085
  145SL       H 2173   1.573   1.416   2.062
  145SL       H 2174   1.676   1.520   2.287
  145SL       H 2175   1.555   1.617   2.198
  146SL       O 2176   2.066   2.451   0.498
  146SL       S 2177   1.963   2.368   0.439
  146SL       O 2178   1.866   2.298   0.520
  146SL       C 2179   1.877   2.464   0.316
  146SL       C 2180   1.884   2.379   0.189
  146SL       C 2181   2.021   2.313   0.189
  146SL       C 2182   2.039   2.253   0.326
  146SL       H 2183   1.775   2.484   0.348
  146SL       H 2184   1.931   2.558   0.302
  146SL       H 2185   1.868   2.440   0.099
  146SL       H 2186   1.806   2.302   0.191
  146SL       H 2187   2.098   2.390   0.171
  146SL       H 2188   2.030   2.238   0.110
  146SL       H 2189   2.144   2.238   0.353
  146SL       H 2190   1.985   2.158   0.335
  147SL       O 2191   3.196   1.882   2.226
  147SL       S 2192   3.335   1.884   2.263
  147SL       O 2193   3.378   1.875   2.402
  147SL       C 2194   3.421   1.760   2.168
  147SL       C 2195   3.537   1.834   2.102
  147SL       C 2196   3.483   1.972   2.064
  147SL       C 2197   3.414   2.025   2.188
  147SL       H 2198   3.455   1.679   2.234
  147SL       H 2199   3.352   1.720   2.093
  147SL       H 2200   3.574   1.779   2.015
  147SL       H 2201   3.620   1.845   2.173
  147SL       H 2202   3.411   1.961   1.982
  147SL       H 2203   3.562   2.038   2.030
  147SL       H 2204   3.339   2.101   2.165
  147SL       H 2205   3.487   2.064   2.259
  148SL       O 2206   2.309   3.311   0.224
  148SL       S 2207   2.189   3.302   0.303
  148SL       O 2208   2.176   3.209   0.413
  148SL       C 2209   2.146   3.466   0.359
  148SL       C 2210   2.001   3.486   0.316
  148SL       C 2211   1.988   3.419   0.179
  148SL       C 2212   2.049   3.281   0.194
  148SL       H 2213   2.158   3.472   0.468
  148SL       H 2214   2.212   3.537   0.310
  148SL       H 2215   1.975   3.592   0.311
  148SL       H 2216   1.933   3.437   0.387
  148SL       H 2217   2.045   3.478   0.104
  148SL       H 2218   1.885   3.414   0.145
  148SL       H 2219   2.083   3.239   0.099
  148SL       H 2220   1.979   3.212   0.242
  149SL       O 2221   1.288   2.519   1.040
  149SL       S 2222   1.309   2.621   1.139
  149SL       O 2223   1.199   2.677   1.216
  149SL       C 2224   1.436   2.567   1.251
  149SL       C 2225   1.539   2.680   1.251
  149SL       C 2226   1.545   2.733   1.108
  149SL       C 2227   1.401   2.755   1.066
  149SL       H 2228   1.394   2.548   1.350
  149SL       H 2229   1.480   2.475   1.210
  149SL       H 2230   1.637   2.645   1.285
  149SL       H 2231   1.506   2.760   1.319
  149SL       H 2232   1.592   2.657   1.043
  149SL       H 2233   1.604   2.825   1.101
  149SL       H 2234   1.388   2.754   0.958
  149SL       H 2235   1.362   2.849   1.107
  150SL       O 2236   1.402   0.372   2.669
  150SL       S 2237   1.335   0.481   2.604
  150SL       O 2238   1.215   0.461   2.524
  150SL       C 2239   1.304   0.609   2.724
  150SL       C 2240   1.364   0.736   2.663
  150SL       C 2241   1.492   0.692   2.592
  150SL       C 2242   1.453   0.573   2.507
  150SL       H 2243   1.196   0.618   2.742
  150SL       H 2244   1.355   0.582   2.816
  150SL       H 2245   1.384   0.811   2.740
  150SL       H 2246   1.294   0.779   2.591
  150SL       H 2247   1.567   0.662   2.666
  150SL       H 2248   1.534   0.772   2.531
  150SL       H 2249   1.538   0.508   2.482
  150SL       H 2250   1.403   0.605   2.415
  151SL       O 2251   1.004   0.732   0.854
  151SL       S 2252   0.935   0.713   0.979
  151SL       O 2253   0.853   0.596   1.004
  151SL       C 2254   1.053   0.731   1.112
  151SL       C 2255   0.992   0.835   1.205
  151SL       C 2256   0.924   0.938   1.115
  151SL       C 2257   0.840   0.859   1.017
  151SL       H 2258   1.069   0.635   1.162
  151SL       H 2259   1.147   0.767   1.069
  151SL       H 2260   1.068   0.882   1.269
  151SL       H 2261   0.917   0.789   1.270
  151SL       H 2262   1.001   0.995   1.061
  151SL       H 2263   0.863   1.009   1.172
  151SL       H 2264   0.818   0.913   0.925
  151SL       H 2265   0.746   0.826   1.063
  152SL       O 2266   2.817   2.337   1.501
  152SL       S 2267   2.773   2.219   1.430
  152SL       O 2268   2.694   2.228   1.309
  152SL       C 2269   2.915   2.116   1.398
  152SL       C 2270   2.878   1.979   1.454
  152SL       C 2271   2.797   2.005   1.581
  152SL       C 2272   2.693   2.108   1.544
  152SL       H 2273   2.937   2.113   1.291
  152SL       H 2274   3.001   2.158   1.453
  152SL       H 2275   2.967   1.918   1.474
  152SL       H 2276   2.815   1.925   1.382
  152SL       H 2277   2.865   2.046   1.659
  152SL       H 2278   2.752   1.914   1.621
  152SL       H 2279   2.656   2.165   1.630
  152SL       H 2280   2.609   2.062   1.492
  153SL       O 2281   0.835   0.465   2.526
  153SL       S 2282   0.873   0.517   2.655
  153SL       O 2283   0.988   0.603   2.673
  153SL       C 2284   0.730   0.595   2.728
  153SL       C 2285   0.715   0.530   2.865
  153SL       C 2286   0.752   0.383   2.847
  153SL       C 2287   0.883   0.382   2.771
  153SL       H 2288   0.746   0.704   2.735
  153SL       H 2289   0.644   0.574   2.665
  153SL       H 2290   0.613   0.542   2.904
  153SL       H 2291   0.784   0.577   2.937
  153SL       H 2292   0.673   0.333   2.787
  153SL       H 2293   0.760   0.330   2.942
  153SL       H 2294   0.901   0.288   2.717
  153SL       H 2295   0.967   0.402   2.838
  154SL       O 2296   1.691   3.621   0.682
  154SL       S 2297   1.764   3.526   0.601
  154SL       O 2298   1.739   3.513   0.458
  154SL       C 2299   1.938   3.550   0.627
  154SL       C 2300   1.992   3.412   0.665
  154SL       C 2301   1.884   3.347   0.751
  154SL       C 2302   1.754   3.365   0.676
  154SL       H 2303   1.985   3.590   0.537
  154SL       H 2304   1.951   3.621   0.710
  154SL       H 2305   2.087   3.420   0.719
  154SL       H 2306   2.008   3.352   0.575
  154SL       H 2307   1.878   3.399   0.849
  154SL       H 2308   1.905   3.242   0.771
  154SL       H 2309   1.666   3.360   0.741
  154SL       H 2310   1.745   3.291   0.595
  155SL       O 2311   2.267   1.559   3.504
  155SL       S 2312   2.221   1.644   3.396
  155SL       O 2313   2.312   1.695   3.295
  155SL       C 2314   2.084   1.563   3.316
  155SL       C 2315   1.972   1.667   3.316
  155SL       C 2316   1.983   1.740   3.450
  155SL       C 2317   2.128   1.780   3.464
  155SL       H 2318   2.112   1.533   3.215
  155SL       H 2319   2.056   1.476   3.375
  155SL       H 2320   1.874   1.619   3.304
  155SL       H 2321   1.986   1.738   3.234
  155SL       H 2322   1.953   1.672   3.531
  155SL       H 2323   1.917   1.827   3.454
  155SL       H 2324   2.158   1.796   3.568
  155SL       H 2325   2.151   1.869   3.404
  156SL       O 2326   1.573   3.160   0.441
  156SL       S 2327   1.458   3.196   0.362
  156SL       O 2328   1.344   3.107   0.349
  156SL       C 2329   1.402   3.357   0.413
  156SL       C 2330   1.396   3.439   0.285
  156SL       C 2331   1.516   3.396   0.201
  156SL       C 2332   1.512   3.244   0.199
  156SL       H 2333   1.304   3.348   0.463
  156SL       H 2334   1.475   3.398   0.483
  156SL       H 2335   1.399   3.547   0.307
  156SL       H 2336   1.303   3.418   0.231
  156SL       H 2337   1.608   3.431   0.249
  156SL       H 2338   1.512   3.437   0.100
  156SL       H 2339   1.610   3.200   0.178
  156SL       H 2340   1.438   3.207   0.127
  157SL       O 2341   1.484   1.972   0.100
  157SL       S 2342   1.569   1.870   0.157
  157SL       O 2343   1.577   1.736   0.101
  157SL       C 2344   1.734   1.936   0.171
  157SL       C 2345   1.773   1.914   0.317
  157SL       C 2346   1.646   1.938   0.399
  157SL       C 2347   1.537   1.858   0.331
  157SL       H 2348   1.802   1.885   0.102
  157SL       H 2349   1.730   2.043   0.148
  157SL       H 2350   1.854   1.982   0.348
  157SL       H 2351   1.807   1.811   0.332
  157SL       H 2352   1.621   2.046   0.396
  157SL       H 2353   1.658   1.910   0.503
  157SL       H 2354   1.437   1.895   0.353
  157SL       H 2355   1.544   1.752   0.359
  158SL       O 2356   3.055   2.803   0.706
  158SL       S 2357   3.052   2.745   0.838
  158SL       O 2358   3.057   2.827   0.958
  158SL       C 2359   2.913   2.634   0.849
  158SL       C 2360   2.971   2.502   0.896
  158SL       C 2361   3.107   2.488   0.827
  158SL       C 2362   3.178   2.619   0.849
  158SL       H 2363   2.838   2.674   0.918
  158SL       H 2364   2.869   2.624   0.749
  158SL       H 2365   2.905   2.418   0.872
  158SL       H 2366   2.985   2.503   1.005
  158SL       H 2367   3.091   2.471   0.719
  158SL       H 2368   3.164   2.404   0.866
  158SL       H 2369   3.256   2.639   0.775
  158SL       H 2370   3.221   2.624   0.950
  159SL       O 2371   0.378   0.974   0.778
  159SL       S 2372   0.428   1.066   0.877
  159SL       O 2373   0.369   1.075   1.009
  159SL       C 2374   0.604   1.041   0.894
  159SL       C 2375   0.666   1.179   0.875
  159SL       C 2376   0.583   1.247   0.766
  159SL       C 2377   0.438   1.229   0.807
  159SL       H 2378   0.627   0.998   0.992
  159SL       H 2379   0.636   0.972   0.816
  159SL       H 2380   0.771   1.172   0.846
  159SL       H 2381   0.659   1.236   0.968
  159SL       H 2382   0.602   1.198   0.669
  159SL       H 2383   0.608   1.353   0.756
  159SL       H 2384   0.369   1.237   0.722
  159SL       H 2385   0.409   1.301   0.884
  160SL       O 2386   2.670   2.220   0.429
  160SL       S 2387   2.651   2.077   0.425
  160SL       O 2388   2.702   1.989   0.529
  160SL       C 2389   2.478   2.043   0.400
  160SL       C 2390   2.473   1.951   0.278
  160SL       C 2391   2.582   2.000   0.183
  160SL       C 2392   2.707   2.015   0.267
  160SL       H 2393   2.435   1.997   0.489
  160SL       H 2394   2.428   2.137   0.379
  160SL       H 2395   2.374   1.952   0.231
  160SL       H 2396   2.494   1.847   0.308
  160SL       H 2397   2.552   2.097   0.141
  160SL       H 2398   2.597   1.931   0.100
  160SL       H 2399   2.779   2.085   0.224
  160SL       H 2400   2.755   1.918   0.284
  161SL       O 2401   1.096   2.795   0.885
  161SL       S 2402   1.038   2.904   0.811
  161SL       O 2403   1.037   2.905   0.666
  161SL       C 2404   0.873   2.932   0.871
  161SL       C 2405   0.869   3.081   0.906
  161SL       C 2406   1.006   3.114   0.965
  161SL       C 2407   1.108   3.057   0.869
  161SL       H 2408   0.800   2.906   0.794
  161SL       H 2409   0.858   2.871   0.960
  161SL       H 2410   0.788   3.103   0.976
  161SL       H 2411   0.852   3.141   0.816
  161SL       H 2412   1.016   3.066   1.064
  161SL       H 2413   1.019   3.222   0.979
  161SL       H 2414   1.205   3.039   0.916
  161SL       H 2415   1.121   3.123   0.782
  162SL       O 2416   2.491   2.525   0.658
  162SL       S 2417   2.368   2.488   0.594
  162SL       O 2418   2.246   2.466   0.668
  162SL       C 2419   2.336   2.605   0.463
  162SL       C 2420   2.315   2.519   0.338
  162SL       C 2421   2.414   2.403   0.349
  162SL       C 2422   2.397   2.347   0.488
  162SL       H 2423   2.248   2.665   0.487
  162SL       H 2424   2.423   2.669   0.452
  162SL       H 2425   2.331   2.577   0.246
  162SL       H 2426   2.212   2.480   0.336
  162SL       H 2427   2.516   2.442   0.335
  162SL       H 2428   2.397   2.327   0.273
  162SL       H 2429   2.485   2.293   0.524
  162SL       H 2430   2.309   2.282   0.494
  163SL       O 2431   2.690   1.327   0.548
  163SL       S 2432   2.758   1.253   0.444
  163SL       O 2433   2.769   1.304   0.309
  163SL       C 2434   2.920   1.208   0.502
  163SL       C 2435   2.929   1.057   0.482
  163SL       C 2436   2.791   1.002   0.515
  163SL       C 2437   2.692   1.087   0.438
  163SL       H 2438   2.997   1.263   0.446
  163SL       H 2439   2.926   1.234   0.609
  163SL       H 2440   3.006   1.013   0.546
  163SL       H 2441   2.955   1.035   0.378
  163SL       H 2442   2.772   1.011   0.623
  163SL       H 2443   2.782   0.896   0.488
  163SL       H 2444   2.592   1.086   0.480
  163SL       H 2445   2.688   1.057   0.332
  164SL       O 2446   2.127   0.715   3.109
  164SL       S 2447   2.104   0.748   3.248
  164SL       O 2448   2.029   0.867   3.286
  164SL       C 2449   2.034   0.606   3.330
  164SL       C 2450   2.125   0.582   3.450
  164SL       C 2451   2.267   0.613   3.404
  164SL       C 2452   2.260   0.748   3.335
  164SL       H 2453   1.931   0.626   3.358
  164SL       H 2454   2.038   0.522   3.261
  164SL       H 2455   2.116   0.479   3.487
  164SL       H 2456   2.097   0.650   3.532
  164SL       H 2457   2.300   0.536   3.333
  164SL       H 2458   2.338   0.615   3.487
  164SL       H 2459   2.341   0.764   3.264
  164SL       H 2460   2.258   0.829   3.407
  165SL       O 2461   2.314   3.046   2.634
  165SL       S 2462   2.301   2.949   2.528
  165SL       O 2463   2.412   2.865   2.487
  165SL       C 2464   2.160   2.846   2.562
  165SL       C 2465   2.074   2.853   2.436
  165SL       C 2466   2.085   2.997   2.385
  165SL       C 2467   2.233   3.029   2.384
  165SL       H 2468   2.193   2.744   2.585
  165SL       H 2469   2.107   2.888   2.648
  165SL       H 2470   1.970   2.825   2.457
  165SL       H 2471   2.113   2.784   2.360
  165SL       H 2472   2.033   3.064   2.455
  165SL       H 2473   2.041   3.009   2.286
  165SL       H 2474   2.254   3.136   2.388
  165SL       H 2475   2.282   2.986   2.296
  166SL       O 2476   2.873   2.596   1.747
  166SL       S 2477   2.874   2.516   1.867
  166SL       O 2478   2.897   2.574   1.998
  166SL       C 2479   2.724   2.420   1.873
  166SL       C 2480   2.770   2.275   1.891
  166SL       C 2481   2.898   2.261   1.809
  166SL       C 2482   2.986   2.378   1.845
  166SL       H 2483   2.660   2.454   1.954
  166SL       H 2484   2.673   2.432   1.777
  166SL       H 2485   2.693   2.204   1.860
  166SL       H 2486   2.793   2.256   1.997
  166SL       H 2487   2.872   2.264   1.701
  166SL       H 2488   2.948   2.165   1.827
  166SL       H 2489   3.059   2.403   1.768
  166SL       H 2490   3.036   2.361   1.941
  167SL       O 2491   2.150   0.932   1.778
  167SL       S 2492   2.233   0.939   1.660
  167SL       O 2493   2.234   1.055   1.573
  167SL       C 2494   2.400   0.899   1.706
  167SL       C 2495   2.441   0.786   1.611
  167SL       C 2496   2.317   0.698   1.594
  167SL       C 2497   2.204   0.793   1.561
  167SL       H 2498   2.464   0.987   1.695
  167SL       H 2499   2.400   0.865   1.809
  167SL       H 2500   2.526   0.729   1.652
  167SL       H 2501   2.472   0.827   1.514
  167SL       H 2502   2.296   0.645   1.688
  167SL       H 2503   2.331   0.623   1.516
  167SL       H 2504   2.105   0.752   1.584
  167SL       H 2505   2.207   0.823   1.456
  168SL       O 2506   1.531   1.291   3.232
  168SL       S 2507   1.638   1.354   3.158
  168SL       O 2508   1.715   1.464   3.213
  168SL       C 2509   1.751   1.227   3.103
  168SL       C 2510   1.763   1.248   2.952
  168SL       C 2511   1.624   1.290   2.903
  168SL       C 2512   1.579   1.400   2.997
  168SL       H 2513   1.846   1.236   3.155
  168SL       H 2514   1.705   1.130   3.125
  168SL       H 2515   1.798   1.157   2.902
  168SL       H 2516   1.835   1.328   2.931
  168SL       H 2517   1.556   1.203   2.910
  168SL       H 2518   1.626   1.323   2.799
  168SL       H 2519   1.470   1.411   2.999
  168SL       H 2520   1.625   1.495   2.970
  169SL       O 2521   3.620   3.348   1.796
  169SL       S 2522   3.556   3.363   1.925
  169SL       O 2523   3.620   3.319   2.048
  169SL       C 2524   3.505   3.532   1.944
  169SL       C 2525   3.357   3.526   1.979
  169SL       C 2526   3.299   3.411   1.896
  169SL       C 2527   3.392   3.293   1.917
  169SL       H 2528   3.564   3.581   2.022
  169SL       H 2529   3.520   3.584   1.849
  169SL       H 2530   3.306   3.620   1.957
  169SL       H 2531   3.344   3.504   2.086
  169SL       H 2532   3.298   3.439   1.790
  169SL       H 2533   3.197   3.387   1.925
  169SL       H 2534   3.387   3.220   1.837
  169SL       H 2535   3.372   3.244   2.013
  170SL       O 2536   0.363   1.904   2.120
  170SL       S 2537   0.338   1.812   2.228
  170SL       O 2538   0.354   1.851   2.367
  170SL       C 2539   0.175   1.742   2.206
  170SL       C 2540   0.197   1.590   2.210
  170SL       C 2541   0.329   1.564   2.139
  170SL       C 2542   0.429   1.661   2.200
  170SL       H 2543   0.108   1.777   2.284
  170SL       H 2544   0.138   1.773   2.108
  170SL       H 2545   0.114   1.537   2.162
  170SL       H 2546   0.203   1.556   2.314
  170SL       H 2547   0.318   1.584   2.032
  170SL       H 2548   0.362   1.461   2.151
  170SL       H 2549   0.514   1.681   2.134
  170SL       H 2550   0.465   1.625   2.297
  171SL       O 2551   0.592   2.715   1.384
  171SL       S 2552   0.719   2.657   1.421
  171SL       O 2553   0.732   2.570   1.537
  171SL       C 2554   0.788   2.575   1.279
  171SL       C 2555   0.928   2.634   1.264
  171SL       C 2556   0.916   2.782   1.300
  171SL       C 2557   0.841   2.786   1.432
  171SL       H 2558   0.789   2.467   1.294
  171SL       H 2559   0.726   2.600   1.192
  171SL       H 2560   0.966   2.620   1.162
  171SL       H 2561   0.997   2.584   1.332
  171SL       H 2562   0.859   2.834   1.222
  171SL       H 2563   1.014   2.830   1.308
  171SL       H 2564   0.791   2.882   1.449
  171SL       H 2565   0.907   2.763   1.516
  172SL       O 2566   1.855   1.636   2.628
  172SL       S 2567   1.921   1.754   2.577
  172SL       O 2568   1.945   1.773   2.435
  172SL       C 2569   1.837   1.898   2.641
  172SL       C 2570   1.947   1.982   2.705
  172SL       C 2571   2.044   1.883   2.770
  172SL       C 2572   2.074   1.779   2.665
  172SL       H 2573   1.786   1.951   2.560
  172SL       H 2574   1.765   1.865   2.716
  172SL       H 2575   1.906   2.052   2.779
  172SL       H 2576   2.000   2.040   2.629
  172SL       H 2577   1.995   1.836   2.857
  172SL       H 2578   2.135   1.932   2.806
  172SL       H 2579   2.108   1.684   2.707
  172SL       H 2580   2.148   1.816   2.593
  173SL       O 2581   1.884   3.192   3.404
  173SL       S 2582   1.816   3.314   3.369
  173SL       O 2583   1.705   3.316   3.275
  173SL       C 2584   1.766   3.396   3.519
  173SL       C 2585   1.822   3.538   3.507
  173SL       C 2586   1.958   3.523   3.439
  173SL       C 2587   1.936   3.436   3.318
  173SL       H 2588   1.657   3.395   3.528
  173SL       H 2589   1.810   3.343   3.603
  173SL       H 2590   1.831   3.585   3.605
  173SL       H 2591   1.756   3.599   3.445
  173SL       H 2592   2.029   3.475   3.509
  173SL       H 2593   2.001   3.620   3.412
  173SL       H 2594   2.027   3.385   3.284
  173SL       H 2595   1.892   3.493   3.236
  174SL       O 2596   2.873   1.276   3.257
  174SL       S 2597   2.956   1.381   3.203
  174SL       O 2598   2.904   1.481   3.111
  174SL       C 2599   3.037   1.464   3.339
  174SL       C 2600   3.186   1.460   3.304
  174SL       C 2601   3.211   1.324   3.238
  174SL       C 2602   3.103   1.309   3.132
  174SL       H 2603   2.999   1.566   3.349
  174SL       H 2604   3.017   1.407   3.430
  174SL       H 2605   3.248   1.474   3.393
  174SL       H 2606   3.210   1.540   3.233
  174SL       H 2607   3.201   1.245   3.314
  174SL       H 2608   3.311   1.318   3.195
  174SL       H 2609   3.084   1.205   3.106
  174SL       H 2610   3.128   1.366   3.042
  175SL       O 2611   1.043   2.807   0.100
  175SL       S 2612   1.165   2.852   0.161
  175SL       O 2613   1.238   2.968   0.112
  175SL       C 2614   1.137   2.872   0.336
  175SL       C 2615   1.247   2.789   0.403
  175SL       C 2616   1.265   2.665   0.317
  175SL       C 2617   1.278   2.715   0.174
  175SL       H 2618   1.141   2.978   0.364
  175SL       H 2619   1.038   2.831   0.360
  175SL       H 2620   1.220   2.763   0.506
  175SL       H 2621   1.340   2.847   0.407
  175SL       H 2622   1.177   2.600   0.326
  175SL       H 2623   1.352   2.607   0.347
  175SL       H 2624   1.253   2.639   0.100
  175SL       H 2625   1.379   2.753   0.155
  176SL       O 2626   2.387   3.092   1.159
  176SL       S 2627   2.373   3.184   1.049
  176SL       O 2628   2.393   3.143   0.911
  176SL       C 2629   2.214   3.265   1.062
  176SL       C 2630   2.246   3.415   1.058
  176SL       C 2631   2.376   3.433   1.135
  176SL       C 2632   2.472   3.329   1.081
  176SL       H 2633   2.149   3.234   0.981
  176SL       H 2634   2.170   3.238   1.158
  176SL       H 2635   2.165   3.474   1.101
  176SL       H 2636   2.260   3.447   0.954
  176SL       H 2637   2.358   3.415   1.243
  176SL       H 2638   2.416   3.534   1.125
  176SL       H 2639   2.552   3.304   1.151
  176SL       H 2640   2.515   3.361   0.986
  177SL       O 2641   0.463   0.605   0.328
  177SL       S 2642   0.525   0.512   0.420
  177SL       O 2643   0.541   0.543   0.560
  177SL       C 2644   0.443   0.355   0.404
  177SL       C 2645   0.556   0.255   0.378
  177SL       C 2646   0.657   0.327   0.288
  177SL       C 2647   0.682   0.461   0.354
  177SL       H 2648   0.387   0.332   0.495
  177SL       H 2649   0.375   0.360   0.318
  177SL       H 2650   0.518   0.163   0.330
  177SL       H 2651   0.604   0.226   0.472
  177SL       H 2652   0.613   0.341   0.188
  177SL       H 2653   0.749   0.269   0.276
  177SL       H 2654   0.719   0.536   0.283
  177SL       H 2655   0.752   0.451   0.437
  178SL       O 2656   0.251   2.275   3.074
  178SL       S 2657   0.329   2.331   2.967
  178SL       O 2658   0.311   2.290   2.829
  178SL       C 2659   0.319   2.509   2.976
  178SL       C 2660   0.464   2.557   2.978
  178SL       C 2661   0.541   2.455   3.061
  178SL       C 2662   0.502   2.319   3.008
  178SL       H 2663   0.263   2.548   2.891
  178SL       H 2664   0.268   2.535   3.069
  178SL       H 2665   0.472   2.658   3.020
  178SL       H 2666   0.504   2.559   2.876
  178SL       H 2667   0.511   2.464   3.167
  178SL       H 2668   0.649   2.471   3.056
  178SL       H 2669   0.517   2.238   3.080
  178SL       H 2670   0.557   2.296   2.915
  179SL       O 2671   0.315   1.776   2.835
  179SL       S 2672   0.299   1.774   2.978
  179SL       O 2673   0.282   1.650   3.052
  179SL       C 2674   0.431   1.868   3.052
  179SL       C 2675   0.361   1.970   3.141
  179SL       C 2676   0.235   2.014   3.067
  179SL       C 2677   0.167   1.886   3.023
  179SL       H 2678   0.497   1.802   3.108
  179SL       H 2679   0.486   1.918   2.972
  179SL       H 2680   0.427   2.056   3.163
  179SL       H 2681   0.334   1.924   3.237
  179SL       H 2682   0.264   2.074   2.979
  179SL       H 2683   0.170   2.075   3.129
  179SL       H 2684   0.100   1.900   2.937
  179SL       H 2685   0.112   1.841   3.105
  180SL       O 2686   2.950   0.179   3.045
  180SL       S 2687   3.020   0.298   3.002
  180SL       O 2688   2.987   0.367   2.879
  180SL       C 2689   3.019   0.416   3.136
  180SL       C 2690   3.166   0.452   3.157
  180SL       C 2691   3.246   0.324   3.135
  180SL       C 2692   3.196   0.266   3.005
  180SL       H 2693   2.958   0.502   3.110
  180SL       H 2694   2.979   0.366   3.224
  180SL       H 2695   3.183   0.494   3.257
  180SL       H 2696   3.197   0.528   3.084
  180SL       H 2697   3.226   0.254   3.218
  180SL       H 2698   3.353   0.342   3.132
  180SL       H 2699   3.213   0.158   2.996
  180SL       H 2700   3.240   0.317   2.919
  181TfN      N 2701   0.974   2.938   2.907
  181TfN      C 2702   1.019   2.949   2.801
  181TfN      N 2703   1.079   2.956   2.669
  181TfN      S 2704   0.994   3.045   2.568
  181TfN      O 2705   0.960   3.179   2.616
  181TfN      O 2706   1.047   3.044   2.431
  181TfN      C 2707   0.836   2.950   2.559
  181TfN      F 2708   0.759   2.988   2.453
  181TfN      F 2709   0.757   2.965   2.669
  181TfN      F 2710   0.857   2.816   2.544
  182TfN      N 2711   2.441   2.061   1.030
  182TfN      C 2712   2.481   1.973   0.965
  182TfN      N 2713   2.537   1.863   0.888
  182TfN      S 2714   2.427   1.789   0.800
  182TfN      O 2715   2.346   1.875   0.714
  182TfN      O 2716   2.479   1.670   0.731
  182TfN      C 2717   2.313   1.722   0.930
  182TfN      F 2718   2.230   1.626   0.881
  182TfN      F 2719   2.233   1.817   0.984
  182TfN      F 2720   2.382   1.664   1.033
  183TfN      N 2721   3.022   1.251   1.208
  183TfN      C 2722   2.942   1.223   1.129
  183TfN      N 2723   2.840   1.195   1.029
  183TfN      S 2724   2.865   1.057   0.955
  183TfN      O 2725   2.885   0.940   1.041
  183TfN      O 2726   2.770   1.031   0.846
  183TfN      C 2727   3.027   1.088   0.870
  183TfN      F 2728   3.052   0.997   0.772
  183TfN      F 2729   3.133   1.084   0.955
  183TfN      F 2730   3.029   1.211   0.809
  184TfN      N 2731   2.834   2.565   0.224
  184TfN      C 2732   2.928   2.552   0.291
  184TfN      N 2733   3.041   2.533   0.381
  184TfN      S 2734   3.180   2.527   0.303
  184TfN      O 2735   3.206   2.639   0.211
  184TfN      O 2736   3.294   2.497   0.389
  184TfN      C 2737   3.158   2.377   0.198
  184TfN      F 2738   3.276   2.332   0.147
  184TfN      F 2739   3.077   2.397   0.090
  184TfN      F 2740   3.105   2.272   0.268
  185TfN      N 2741   0.596   2.289   0.925
  185TfN      C 2742   0.494   2.234   0.932
  185TfN      N 2743   0.366   2.166   0.949
  185TfN      S 2744   0.275   2.177   0.819
  185TfN      O 2745   0.338   2.137   0.693
  185TfN      O 2746   0.141   2.118   0.837
  185TfN      C 2747   0.246   2.359   0.808
  185TfN      F 2748   0.143   2.390   0.725
  185TfN      F 2749   0.354   2.427   0.761
  185TfN      F 2750   0.215   2.413   0.930
  186TfN      N 2751   0.932   3.496   0.457
  186TfN      C 2752   0.995   3.414   0.508
  186TfN      N 2753   1.073   3.313   0.580
  186TfN      S 2754   1.091   3.180   0.494
  186TfN      O 2755   1.143   3.198   0.359
  186TfN      O 2756   1.160   3.073   0.568
  186TfN      C 2757   0.917   3.122   0.477
  186TfN      F 2758   0.909   2.992   0.438
  186TfN      F 2759   0.845   3.193   0.386
  186TfN      F 2760   0.848   3.129   0.596
  187TfN      N 2761   0.728   0.425   2.338
  187TfN      C 2762   0.615   0.397   2.334
  187TfN      N 2763   0.475   0.359   2.321
  187TfN      S 2764   0.405   0.340   2.463
  187TfN      O 2765   0.420   0.452   2.556
  187TfN      O 2766   0.268   0.291   2.453
  187TfN      C 2767   0.501   0.199   2.534
  187TfN      F 2768   0.438   0.142   2.640
  187TfN      F 2769   0.625   0.235   2.578
  187TfN      F 2770   0.520   0.099   2.443
  188TfN      N 2771   1.855   1.549   1.585
  188TfN      C 2772   1.971   1.541   1.594
  188TfN      N 2773   2.115   1.529   1.614
  188TfN      S 2774   2.189   1.480   1.482
  188TfN      O 2775   2.160   1.556   1.360
  188TfN      O 2776   2.333   1.457   1.502
  188TfN      C 2777   2.116   1.312   1.458
  188TfN      F 2778   2.189   1.236   1.372
  188TfN      F 2779   1.990   1.315   1.408
  188TfN      F 2780   2.112   1.241   1.575
  189TfN      N 2781   2.519   0.853   2.157
  189TfN      C 2782   2.628   0.813   2.154
  189TfN      N 2783   2.764   0.762   2.158
  189TfN      S 2784   2.805   0.690   2.022
  189TfN      O 2785   2.783   0.768   1.900
  189TfN      O 2786   2.938   0.628   2.027
  189TfN      C 2787   2.687   0.549   2.016
  189TfN      F 2788   2.725   0.453   1.926
  189TfN      F 2789   2.561   0.586   1.980
  189TfN      F 2790   2.677   0.485   2.137
  190TfN      N 2791   2.516   3.549   2.226
  190TfN      C 2792   2.458   3.531   2.127
  190TfN      N 2793   2.393   3.504   1.999
  190TfN      S 2794   2.234   3.502   2.013
  190TfN      O 2795   2.174   3.618   2.078
  190TfN      O 2796   2.166   3.464   1.888
  190TfN      C 2797   2.208   3.358   2.127
  190TfN      F 2798   2.079   3.315   2.126
  190TfN      F 2799   2.238   3.387   2.256
  190TfN      F 2800   2.285   3.250   2.091
  191TfN      N 2801   0.194   0.493   2.502
  191TfN      C 2802   0.265   0.512   2.412
  191TfN      N 2803   0.347   0.536   2.295
  191TfN      S 2804   0.475   0.626   2.329
  191TfN      O 2805   0.557   0.580   2.441
  191TfN      O 2806   0.554   0.660   2.210
  191TfN      C 2807   0.396   0.784   2.382
  191TfN      F 2808   0.485   0.888   2.382
  191TfN      F 2809   0.344   0.779   2.507
  191TfN      F 2810   0.295   0.822   2.297
  192TfN      N 2811   2.383   2.626   1.342
  192TfN      C 2812   2.479   2.681   1.375
  192TfN      N 2813   2.597   2.758   1.413
  192TfN      S 2814   2.659   2.709   1.552
  192TfN      O 2815   2.685   2.565   1.562
  192TfN      O 2816   2.771   2.791   1.597
  192TfN      C 2817   2.521   2.746   1.669
  192TfN      F 2818   2.562   2.744   1.799
  192TfN      F 2819   2.418   2.657   1.662
  192TfN      F 2820   2.467   2.870   1.648
  193TfN      N 2821   2.561   2.925   0.458
  193TfN      C 2822   2.665   2.892   0.498
  193TfN      N 2823   2.793   2.852   0.555
  193TfN      S 2824   2.864   2.737   0.470
  193TfN      O 2825   2.877   2.763   0.326
  193TfN      O 2826   2.987   2.687   0.531
  193TfN      C 2827   2.743   2.598   0.487
  193TfN      F 2828   2.797   2.478   0.451
  193TfN      F 2829   2.632   2.614   0.409
  193TfN      F 2830   2.699   2.583   0.616
  194TfN      N 2831   1.904   2.775   0.328
  194TfN      C 2832   1.982   2.861   0.335
  194TfN      N 2833   2.081   2.967   0.352
  194TfN      S 2834   2.162   2.995   0.219
  194TfN      O 2835   2.082   3.019   0.099
  194TfN      O 2836   2.269   3.094   0.236
  194TfN      C 2837   2.249   2.834   0.193
  194TfN      F 2838   2.352   2.845   0.104
  194TfN      F 2839   2.168   2.736   0.145
  194TfN      F 2840   2.305   2.787   0.309
  195TfN      N 2841   0.688   0.931   1.615
  195TfN      C 2842   0.709   0.817   1.623
  195TfN      N 2843   0.735   0.674   1.624
  195TfN      S 2844   0.799   0.626   1.762
  195TfN      O 2845   0.727   0.666   1.883
  195TfN      O 2846   0.837   0.485   1.762
  195TfN      C 2847   0.959   0.719   1.763
  195TfN      F 2848   1.047   0.668   1.855
  195TfN      F 2849   0.945   0.850   1.794
  195TfN      F 2850   1.023   0.713   1.642
  196TfN      N 2851   2.615   2.165   1.114
  196TfN      C 2852   2.600   2.251   1.037
  196TfN      N 2853   2.578   2.354   0.936
  196TfN      S 2854   2.553   2.497   1.001
  196TfN      O 2855   2.652   2.542   1.099
  196TfN      O 2856   2.520   2.600   0.902
  196TfN      C 2857   2.396   2.468   1.095
  196TfN      F 2858   2.335   2.585   1.131
  196TfN      F 2859   2.414   2.399   1.210
  196TfN      F 2860   2.304   2.399   1.020
  197TfN      N 2861   0.517   2.744   2.237
  197TfN      C 2862   0.476   2.776   2.134
  197TfN      N 2863   0.431   2.815   2.001
  197TfN      S 2864   0.272   2.817   1.990
  197TfN      O 2865   0.202   2.896   2.093
  197TfN      O 2866   0.224   2.845   1.854
  197TfN      C 2867   0.229   2.640   2.021
  197TfN      F 2868   0.102   2.611   1.983
  197TfN      F 2869   0.238   2.605   2.152
  197TfN      F 2870   0.310   2.555   1.951
  198TfN      N 2871   3.479   1.616   0.883
  198TfN      C 2872   3.364   1.612   0.897
  198TfN      N 2873   3.220   1.608   0.923
  198TfN      S 2874   3.135   1.651   0.795
  198TfN      O 2875   3.167   1.580   0.671
  198TfN      O 2876   2.991   1.658   0.822
  198TfN      C 2877   3.189   1.826   0.772
  198TfN      F 2878   3.104   1.895   0.690
  198TfN      F 2879   3.312   1.838   0.716
  198TfN      F 2880   3.191   1.895   0.890
  199TfN      N 2881   1.424   2.001   3.407
  199TfN      C 2882   1.491   1.947   3.329
  199TfN      N 2883   1.581   1.880   3.236
  199TfN      S 2884   1.507   1.768   3.151
  199TfN      O 2885   1.385   1.810   3.083
  199TfN      O 2886   1.598   1.692   3.065
  199TfN      C 2887   1.456   1.649   3.283
  199TfN      F 2888   1.422   1.527   3.232
  199TfN      F 2889   1.349   1.691   3.355
  199TfN      F 2890   1.558   1.624   3.372
  200TfN      N 2891   3.516   0.870   2.431
  200TfN      C 2892   3.562   0.926   2.341
  200TfN      N 2893   3.620   0.990   2.223
  200TfN      S 2894   3.571   1.141   2.207
  200TfN      O 2895   3.587   1.226   2.324
  200TfN      O 2896   3.620   1.204   2.083
  200TfN      C 2897   3.390   1.119   2.181
  200TfN      F 2898   3.331   1.231   2.130
  200TfN      F 2899   3.322   1.090   2.295
  200TfN      F 2900   3.362   1.018   2.092
  201TfN      N 2901   0.304   1.357   3.155
  201TfN      C 2902   0.304   1.402   3.262
  201TfN      N 2903   0.307   1.450   3.400
  201TfN      S 2904   0.338   1.606   3.408
  201TfN      O 2905   0.253   1.692   3.325
  201TfN      O 2906   0.352   1.655   3.545
  201TfN      C 2907   0.508   1.615   3.336
  201TfN      F 2908   0.569   1.733   3.363
  201TfN      F 2909   0.509   1.603   3.200
  201TfN      F 2910   0.590   1.517   3.386
  202TfN      N 2911   1.920   2.202   3.504
  202TfN      C 2912   1.807   2.195   3.529
  202TfN      N 2913   1.667   2.186   3.569
  202TfN      S 2914   1.571   2.264   3.469
  202TfN      O 2915   1.586   2.230   3.327
  202TfN      O 2916   1.431   2.265   3.513
  202TfN      C 2917   1.629   2.438   3.488
  202TfN      F 2918   1.540   2.528   3.439
  202TfN      F 2919   1.747   2.463   3.425
  202TfN      F 2920   1.647   2.472   3.620
  203TfN      N 2921   1.897   1.418   3.515
  203TfN      C 2922   1.960   1.332   3.561
  203TfN      N 2923   2.032   1.220   3.620
  203TfN      S 2924   2.177   1.201   3.556
  203TfN      O 2925   2.261   1.321   3.552
  203TfN      O 2926   2.247   1.083   3.606
  203TfN      C 2927   2.134   1.161   3.380
  203TfN      F 2928   2.240   1.107   3.313
  203TfN      F 2929   2.096   1.270   3.308
  203TfN      F 2930   2.033   1.069   3.371
  204TfN      N 2931   1.858   3.406   2.413
  204TfN      C 2932   1.853   3.302   2.464
  204TfN      N 2933   1.850   3.167   2.520
  204TfN      S 2934   1.864   3.169   2.679
  204TfN      O 2935   1.772   3.257   2.750
  204TfN      O 2936   1.872   3.034   2.737
  204TfN      C 2937   2.033   3.240   2.700
  204TfN      F 2938   2.082   3.219   2.826
  204TfN      F 2939   2.038   3.375   2.680
  204TfN      F 2940   2.124   3.184   2.615
  205TfN      N 2941   2.052   2.712   1.397
  205TfN      C 2942   1.990   2.792   1.453
  205TfN      N 2943   1.919   2.898   1.524
  205TfN      S 2944   1.762   2.888   1.503
  205TfN      O 2945   1.701   2.758   1.531
  205TfN      O 2946   1.689   3.000   1.564
  205TfN      C 2947   1.746   2.915   1.321
  205TfN      F 2948   1.619   2.946   1.284
  205TfN      F 2949   1.782   2.806   1.247
  205TfN      F 2950   1.824   3.019   1.277
  206TfN      N 2951   1.558   0.648   3.420
  206TfN      C 2952   1.530   0.733   3.494
  206TfN      N 2953   1.498   0.835   3.592
  206TfN      S 2954   1.450   0.971   3.524
  206TfN      O 2955   1.341   0.958   3.427
  206TfN      O 2956   1.428   1.079   3.621
  206TfN      C 2957   1.600   1.021   3.429
  206TfN      F 2958   1.595   1.151   3.389
  206TfN      F 2959   1.618   0.948   3.315
  206TfN      F 2960   1.715   1.008   3.503
  207TfN      N 2961   0.531   0.520   1.461
  207TfN      C 2962   0.520   0.630   1.494
  207TfN      N 2963   0.510   0.767   1.542
  207TfN      S 2964   0.487   0.871   1.423
  207TfN      O 2965   0.376   0.840   1.333
  207TfN      O 2966   0.487   1.011   1.468
  207TfN      C 2967   0.642   0.851   1.325
  207TfN      F 2968   0.661   0.954   1.238
  207TfN      F 2969   0.644   0.738   1.251
  207TfN      F 2970   0.753   0.849   1.405
  208TfN      N 2971   1.206   1.014   1.137
  208TfN      C 2972   1.275   1.048   1.224
  208TfN      N 2973   1.366   1.086   1.331
  208TfN      S 2974   1.336   1.232   1.387
  208TfN      O 2975   1.197   1.257   1.427
  208TfN      O 2976   1.433   1.276   1.487
  208TfN      C 2977   1.368   1.336   1.239
  208TfN      F 2978   1.382   1.468   1.271
  208TfN      F 2979   1.268   1.331   1.146
  208TfN      F 2980   1.483   1.301   1.175
  209TfN      N 2981   1.884   2.060   2.330
  209TfN      C 2982   2.000   2.057   2.335
  209TfN      N 2983   2.144   2.051   2.350
  209TfN      S 2984   2.217   2.006   2.216
  209TfN      O 2985   2.181   2.081   2.096
  209TfN      O 2986   2.362   1.989   2.232
  209TfN      C 2987   2.151   1.835   2.194
  209TfN      F 2988   2.224   1.763   2.104
  209TfN      F 2989   2.023   1.833   2.147
  209TfN      F 2990   2.152   1.763   2.310
  210TfN      N 2991   1.746   0.709   2.233
  210TfN      C 2992   1.639   0.664   2.223
  210TfN      N 2993   1.504   0.610   2.219
  210TfN      S 2994   1.436   0.629   2.076
  210TfN      O 2995   1.514   0.581   1.962
  210TfN      O 2996   1.296   0.585   2.073
  210TfN      C 2997   1.428   0.813   2.062
  210TfN      F 2998   1.343   0.854   1.964
  210TfN      F 2999   1.549   0.870   2.033
  210TfN      F 3000   1.384   0.872   2.178
  211TfN      N 3001   0.100   0.495   0.718
  211TfN      C 3002   0.110   0.610   0.728
  211TfN      N 3003   0.123   0.754   0.749
  211TfN      S 3004   0.175   0.829   0.618
  211TfN      O 3005   0.100   0.801   0.496
  211TfN      O 3006   0.200   0.972   0.640
  211TfN      C 3007   0.342   0.754   0.596
  211TfN      F 3008   0.420   0.826   0.510
  211TfN      F 3009   0.338   0.628   0.545
  211TfN      F 3010   0.412   0.747   0.713
  212TfN      N 3011   2.523   1.559   2.209
  212TfN      C 3012   2.538   1.450   2.244
  212TfN      N 3013   2.565   1.313   2.287
  212TfN      S 3014   2.451   1.257   2.384
  212TfN      O 3015   2.314   1.270   2.335
  212TfN      O 3016   2.481   1.124   2.437
  212TfN      C 3017   2.467   1.371   2.529
  212TfN      F 3018   2.404   1.322   2.639
  212TfN      F 3019   2.414   1.494   2.506
  212TfN      F 3020   2.598   1.390   2.565
  213TfN      N 3021   2.371   1.809   2.729
  213TfN      C 3022   2.322   1.908   2.692
  213TfN      N 3023   2.253   2.028   2.647
  213TfN      S 3024   2.333   2.160   2.683
  213TfN      O 3025   2.473   2.163   2.642
  213TfN      O 3026   2.260   2.283   2.648
  213TfN      C 3027   2.331   2.155   2.868
  213TfN      F 3028   2.364   2.276   2.923
  213TfN      F 3029   2.419   2.066   2.920
  213TfN      F 3030   2.208   2.123   2.918
  214TfN      N 3031   3.461   1.548   1.581
  214TfN      C 3032   3.511   1.651   1.560
  214TfN      N 3033   3.572   1.778   1.525
  214TfN      S 3034   3.549   1.888   1.638
  214TfN      O 3035   3.586   1.848   1.774
  214TfN      O 3036   3.601   2.020   1.601
  214TfN      C 3037   3.365   1.906   1.637
  214TfN      F 3038   3.324   2.019   1.700
  214TfN      F 3039   3.301   1.803   1.698
  214TfN      F 3040   3.315   1.914   1.509
  215TfN      N 3041   2.649   0.325   3.465
  215TfN      C 3042   2.583   0.252   3.404
  215TfN      N 3043   2.505   0.154   3.329
  215TfN      S 3044   2.354   0.201   3.308
  215TfN      O 3045   2.337   0.335   3.251
  215TfN      O 3046   2.271   0.100   3.242
  215TfN      C 3047   2.293   0.210   3.482
  215TfN      F 3048   2.156   0.215   3.488
  215TfN      F 3049   2.337   0.319   3.549
  215TfN      F 3050   2.329   0.100   3.555
  216TfN      N 3051   0.719   0.420   3.247
  216TfN      C 3052   0.778   0.518   3.270
  216TfN      N 3053   0.853   0.638   3.306
  216TfN      S 3054   0.907   0.715   3.178
  216TfN      O 3055   0.808   0.746   3.075
  216TfN      O 3056   0.992   0.830   3.212
  216TfN      C 3057   1.022   0.590   3.105
  216TfN      F 3058   1.107   0.646   3.014
  216TfN      F 3059   0.958   0.490   3.040
  216TfN      F 3060   1.102   0.532   3.200
  217TfN      N 3061   2.209   0.946   1.167
  217TfN      C 3062   2.101   0.963   1.207
  217TfN      N 3063   1.964   0.985   1.249
  217TfN      S 3064   1.930   0.910   1.385
  217TfN      O 3065   2.022   0.935   1.496
  217TfN      O 3066   1.789   0.922   1.424
  217TfN      C 3067   1.952   0.733   1.337
  217TfN      F 3068   1.895   0.648   1.427
  217TfN      F 3069   2.082   0.696   1.327
  217TfN      F 3070   1.893   0.705   1.216
  218TfN      N 3071   1.171   2.336   0.517
  218TfN      C 3072   1.162   2.220   0.513
  218TfN      N 3073   1.151   2.075   0.499
  218TfN      S 3074   1.198   1.999   0.631
  218TfN      O 3075   1.136   2.044   0.756
  218TfN      O 3076   1.199   1.853   0.617
  218TfN      C 3077   1.376   2.048   0.641
  218TfN      F 3078   1.446   1.968   0.727
  218TfN      F 3079   1.395   2.175   0.685
  218TfN      F 3080   1.439   2.038   0.520
  219TfN      N 3081   3.058   2.149   1.017
  219TfN      C 3082   3.164   2.191   1.040
  219TfN      N 3083   3.295   2.250   1.067
  219TfN      S 3084   3.384   2.158   1.161
  219TfN      O 3085   3.399   2.019   1.119
  219TfN      O 3086   3.511   2.221   1.199
  219TfN      C 3087   3.284   2.156   1.317
  219TfN      F 3088   3.356   2.113   1.424
  219TfN      F 3089   3.175   2.075   1.309
  219TfN      F 3090   3.238   2.281   1.350
  220TfN      N 3091   0.902   3.137   1.541
  220TfN      C 3092   0.974   3.122   1.630
  220TfN      N 3093   1.063   3.110   1.745
  220TfN      S 3094   1.101   2.959   1.775
  220TfN      O 3095   1.154   2.882   1.662
  220TfN      O 3096   1.182   2.943   1.897
  220TfN      C 3097   0.937   2.886   1.817
  220TfN      F 3098   0.948   2.766   1.880
  220TfN      F 3099   0.859   2.864   1.707
  220TfN      F 3100   0.865   2.966   1.901
  221TfN      N 3101   2.955   3.257   1.982
  221TfN      C 3102   3.053   3.220   1.932
  221TfN      N 3103   3.177   3.169   1.875
  221TfN      S 3104   3.182   3.188   1.717
  221TfN      O 3105   3.156   3.323   1.668
  221TfN      O 3106   3.301   3.127   1.656
  221TfN      C 3107   3.041   3.083   1.662
  221TfN      F 3108   3.047   3.056   1.528
  221TfN      F 3109   2.920   3.141   1.683
  221TfN      F 3110   3.039   2.962   1.725
  222TfN      N 3111   0.159   1.277   2.133
  222TfN      C 3112   0.267   1.264   2.175
  222TfN      N 3113   0.398   1.244   2.234
  222TfN      S 3114   0.513   1.236   2.123
  222TfN      O 3115   0.516   1.346   2.027
  222TfN      O 3116   0.645   1.205   2.179
  222TfN      C 3117   0.464   1.085   2.029
  222TfN      F 3118   0.565   1.038   1.951
  222TfN      F 3119   0.359   1.105   1.945
  222TfN      F 3120   0.429   0.981   2.112
  223TfN      N 3121   2.630   3.266   0.541
  223TfN      C 3122   2.578   3.195   0.617
  223TfN      N 3123   2.517   3.110   0.719
  223TfN      S 3124   2.370   3.065   0.678
  223TfN      O 3125   2.355   3.006   0.546
  223TfN      O 3126   2.302   2.988   0.783
  223TfN      C 3127   2.281   3.227   0.673
  223TfN      F 3128   2.146   3.212   0.675
  223TfN      F 3129   2.310   3.301   0.562
  223TfN      F 3130   2.312   3.306   0.782
  224TfN      N 3131   3.367   1.548   3.079
  224TfN      C 3132   3.303   1.521   2.986
  224TfN      N 3133   3.219   1.482   2.873
  224TfN      S 3134   3.196   1.602   2.771
  224TfN      O 3135   3.317   1.670   2.724
  224TfN      O 3136   3.103   1.568   2.663
  224TfN      C 3137   3.105   1.724   2.877
  224TfN      F 3138   3.044   1.820   2.803
  224TfN      F 3139   3.185   1.789   2.965
  224TfN      F 3140   3.006   1.664   2.950
  225TfN      N 3141   0.565   1.839   2.476
  225TfN      C 3142   0.522   1.947   2.482
  225TfN      N 3143   0.468   2.082   2.483
  225TfN      S 3144   0.387   2.114   2.616
  225TfN      O 3145   0.457   2.086   2.741
  225TfN      O 3146   0.323   2.246   2.614
  225TfN      C 3147   0.248   1.993   2.605
  225TfN      F 3148   0.146   2.024   2.690
  225TfN      F 3149   0.285   1.866   2.636
  225TfN      F 3150   0.193   1.989   2.480
  226TfN      N 3151   1.358   0.529   3.087
  226TfN      C 3152   1.320   0.430   3.134
  226TfN      N 3153   1.267   0.305   3.187
  226TfN      S 3154   1.371   0.230   3.281
  226TfN      O 3155   1.430   0.311   3.388
  226TfN      O 3156   1.324   0.099   3.327
  226TfN      C 3157   1.508   0.193   3.162
  226TfN      F 3158   1.594   0.100   3.210
  226TfN      F 3159   1.584   0.302   3.132
  226TfN      F 3160   1.461   0.144   3.043
  227TfN      N 3161   3.340   0.200   2.281
  227TfN      C 3162   3.385   0.169   2.178
  227TfN      N 3163   3.436   0.125   2.050
  227TfN      S 3164   3.515   0.240   1.973
  227TfN      O 3165   3.620   0.307   2.049
  227TfN      O 3166   3.558   0.201   1.838
  227TfN      C 3167   3.381   0.365   1.946
  227TfN      F 3168   3.415   0.458   1.852
  227TfN      F 3169   3.350   0.435   2.059
  227TfN      F 3170   3.265   0.307   1.902
  228TfN      N 3171   1.666   3.165   3.430
  228TfN      C 3172   1.596   3.075   3.408
  228TfN      N 3173   1.511   2.963   3.372
  228TfN      S 3174   1.506   2.852   3.486
  228TfN      O 3175   1.474   2.900   3.620
  228TfN      O 3176   1.429   2.733   3.447
  228TfN      C 3177   1.682   2.795   3.491
  228TfN      F 3178   1.696   2.676   3.556
  228TfN      F 3179   1.765   2.883   3.553
  228TfN      F 3180   1.733   2.775   3.365
  229TfN      N 3181   2.451   3.238   1.335
  229TfN      C 3182   2.419   3.133   1.373
  229TfN      N 3183   2.386   2.999   1.420
  229TfN      S 3184   2.249   2.996   1.501
  229TfN      O 3185   2.134   3.056   1.433
  229TfN      O 3186   2.220   2.865   1.559
  229TfN      C 3187   2.288   3.105   1.645
  229TfN      F 3188   2.198   3.090   1.746
  229TfN      F 3189   2.288   3.237   1.614
  229TfN      F 3190   2.411   3.076   1.700
  230TfN      N 3191   3.372   1.032   0.313
  230TfN      C 3192   3.293   1.115   0.331
  230TfN      N 3193   3.197   1.220   0.362
  230TfN      S 3194   3.156   1.304   0.234
  230TfN      O 3195   3.112   1.227   0.118
  230TfN      O 3196   3.068   1.417   0.264
  230TfN      C 3197   3.317   1.381   0.187
  230TfN      F 3198   3.302   1.485   0.100
  230TfN      F 3199   3.403   1.295   0.126
  230TfN      F 3200   3.383   1.433   0.295
  231TfN      N 3201   2.375   1.572   1.237
  231TfN      C 3202   2.483   1.529   1.234
  231TfN      N 3203   2.619   1.479   1.222
  231TfN      S 3204   2.688   1.459   1.364
  231TfN      O 3205   2.612   1.379   1.461
  231TfN      O 3206   2.829   1.419   1.355
  231TfN      C 3207   2.691   1.631   1.430
  231TfN      F 3208   2.776   1.644   1.536
  231TfN      F 3209   2.569   1.674   1.474
  231TfN      F 3210   2.733   1.721   1.336
  232TfN      N 3211   1.919   0.272   0.800
  232TfN      C 3212   1.863   0.211   0.718
  232TfN      N 3213   1.786   0.134   0.622
  232TfN      S 3214   1.826   0.169   0.472
  232TfN      O 3215   1.969   0.162   0.441
  232TfN      O 3216   1.742   0.101   0.372
  232TfN      C 3217   1.778   0.347   0.460
  232TfN      F 3218   1.770   0.390   0.331
  232TfN      F 3219   1.865   0.430   0.523
  232TfN      F 3220   1.654   0.371   0.515
  233TfN      N 3221   2.798   2.047   3.510
  233TfN      C 3222   2.727   2.129   3.553
  233TfN      N 3223   2.644   2.236   3.607
  233TfN      S 3224   2.489   2.213   3.577
  233TfN      O 3225   2.436   2.082   3.615
  233TfN      O 3226   2.405   2.325   3.620
  233TfN      C 3227   2.486   2.218   3.392
  233TfN      F 3228   2.360   2.235   3.344
  233TfN      F 3229   2.533   2.105   3.334
  233TfN      F 3230   2.560   2.323   3.342
  234TfN      N 3231   3.030   3.312   0.110
  234TfN      C 3232   3.025   3.282   0.222
  234TfN      N 3233   3.012   3.247   0.363
  234TfN      S 3234   3.113   3.132   0.406
  234TfN      O 3235   3.253   3.154   0.372
  234TfN      O 3236   3.093   3.087   0.545
  234TfN      C 3237   3.055   2.990   0.302
  234TfN      F 3238   3.104   2.871   0.346
  234TfN      F 3239   3.093   3.001   0.172
  234TfN      F 3240   2.919   2.978   0.302
  235TfN      N 3241   2.004   1.865   0.186
  235TfN      C 3242   2.028   1.762   0.236
  235TfN      N 3243   2.061   1.638   0.304
  235TfN      S 3244   1.985   1.513   0.241
  235TfN      O 3245   1.999   1.497   0.096
  235TfN      O 3246   2.007   1.389   0.315
  235TfN      C 3247   1.808   1.556   0.272
  235TfN      F 3248   1.726   1.449   0.258
  235TfN      F 3249   1.761   1.652   0.188
  235TfN      F 3250   1.788   1.603   0.400
  236TfN      N 3251   0.705   2.399   1.102
  236TfN      C 3252   0.755   2.298   1.076
  236TfN      N 3253   0.818   2.173   1.035
  236TfN      S 3254   0.912   2.113   1.149
  236TfN      O 3255   0.852   2.099   1.281
  236TfN      O 3256   0.985   1.993   1.106
  236TfN      C 3257   1.041   2.244   1.163
  236TfN      F 3258   1.152   2.200   1.229
  236TfN      F 3259   0.999   2.354   1.231
  236TfN      F 3260   1.085   2.287   1.041
  237TfN      N 3261   3.607   2.420   2.250
  237TfN      C 3262   3.494   2.397   2.266
  237TfN      N 3263   3.353   2.372   2.293
  237TfN      S 3264   3.265   2.373   2.160
  237TfN      O 3265   3.313   2.288   2.051
  237TfN      O 3266   3.122   2.358   2.186
  237TfN      C 3267   3.286   2.548   2.103
  237TfN      F 3268   3.193   2.583   2.010
  237TfN      F 3269   3.407   2.571   2.045
  237TfN      F 3270   3.273   2.637   2.206
  238TfN      N 3271   0.875   0.178   0.545
  238TfN      C 3272   0.847   0.278   0.598
  238TfN      N 3273   0.811   0.406   0.657
  238TfN      S 3274   0.751   0.390   0.804
  238TfN      O 3275   0.832   0.311   0.897
  238TfN      O 3276   0.704   0.517   0.861
  238TfN      C 3277   0.598   0.292   0.771
  238TfN      F 3278   0.511   0.295   0.876
  238TfN      F 3279   0.622   0.161   0.746
  238TfN      F 3280   0.528   0.341   0.663
  239TfN      N 3281   0.572   1.129   2.502
  239TfN      C 3282   0.471   1.072   2.503
  239TfN      N 3283   0.345   0.999   2.511
  239TfN      S 3284   0.238   1.051   2.405
  239TfN      O 3285   0.285   1.058   2.266
  239TfN      O 3286   0.107   0.987   2.418
  239TfN      C 3287   0.212   1.225   2.460
  239TfN      F 3288   0.100   1.280   2.406
  239TfN      F 3289   0.315   1.308   2.426
  239TfN      F 3290   0.197   1.234   2.596
  240TfN      N 3291   1.158   2.691   2.043
  240TfN      C 3292   1.201   2.606   2.110
  240TfN      N 3293   1.251   2.494   2.188
  240TfN      S 3294   1.383   2.531   2.269
  240TfN      O 3295   1.375   2.652   2.352
  240TfN      O 3296   1.441   2.417   2.340
  240TfN      C 3297   1.501   2.568   2.133
  240TfN      F 3298   1.631   2.569   2.176
  240TfN      F 3299   1.480   2.689   2.074
  240TfN      F 3300   1.496   2.474   2.033
  241LI      Li 3301   0.614   2.677   3.500
  242LI      Li 3302   1.034   2.848   1.090
  243LI      Li 3303   0.427   3.237   0.912
  244LI      Li 3304   3.061   1.786   0.280
  245LI      Li 3305   3.372   0.709   0.566
  246LI      Li 3306   1.116   3.173   3.081
  247LI      Li 3307   3.063   0.389   3.477
  248LI      Li 3308   0.176   0.340   3.113
  249LI      Li 3309   0.181   2.137   1.552
  250LI      Li 3310   2.844   1.079   2.916
  251LI      Li 3311   0.130   1.497   1.537
  252LI      Li 3312   2.959   1.331   2.906
  253LI      Li 3313   2.564   2.283   0.729
  254LI      Li 3314   2.792   1.629   2.994
  255LI      Li 3315   0.372   2.606   2.329
  256LI      Li 3316   0.603   1.404   3.197
  257LI      Li 3317   1.210   0.709   2.400
  258LI      Li 3318   0.414   3.266   3.367
  259LI      Li 3319   0.808   3.175   1.345
  260LI      Li 3320   3.379   1.045   3.057
  261LI      Li 3321   1.756   2.208   2.740
  262LI      Li 3322   3.182   3.551   2.788
  263LI      Li 3323   1.549   0.842   2.323
  264LI      Li 3324   1.928   1.516   1.345
  265LI      Li 3325   0.501   0.884   2.621
  266LI      Li 3326   3.148   1.149   1.475
  267LI      Li 3327   3.059   0.921   0.221
  268LI      Li 3328   0.411   1.043   0.571
  269LI      Li 3329   0.391   2.173   3.449
  270LI      Li 3330   1.680   3.409   1.689
  271LI      Li 3331   1.165   0.847   1.798
  272LI      Li 3332   1.244   3.174   1.084
  273LI      Li 3333   3.611   3.022   1.419
  274LI      Li 3334   2.120   1.221   1.072
  275LI      Li 3335   1.164   0.396   2.740
  276LI      Li 3336   2.448   2.420   2.002
  277LI      Li 3337   1.485   1.080   2.039
  278LI      Li 3338   1.885   2.078   1.138
  279LI      Li 3339   0.172   1.783   3.521
  280LI      Li 3340   0.382   3.322   2.307
  281LI      Li 3341   2.556   1.092   2.232
  282LI      Li 3342   0.293   1.060   1.358
  283LI      Li 3343   2.104   1.062   0.641
  284LI      Li 3344   0.194   3.363   3.295
  285LI      Li 3345   3.081   2.616   1.816
  286LI      Li 3346   3.310   1.446   0.571
  287LI      Li 3347   1.816   1.044   3.311
  288LI      Li 3348   1.197   2.890   2.935
  289LI      Li 3349   2.383   1.970   3.434
  290LI      Li 3350   2.516   1.317   0.414
  291LI      Li 3351   2.803   0.487   1.722
  292LI      Li 3352   2.273   1.178   2.742
  293LI      Li 3353   2.739   0.348   1.563
  294LI      Li 3354   0.646   2.780   2.813
  295LI      Li 3355   1.019   3.568   2.709
  296LI      Li 3356   1.192   2.565   1.433
  297LI      Li 3357   2.446   0.191   1.970
  298LI      Li 3358   1.881   1.244   3.375
  299LI      Li 3359   1.839   2.175   1.383
  300LI      Li 3360   3.224   2.427   1.176
   3.72000   3.72000   3.72000
