A Gromacs structure file written by ASE 
   10
    1TfN      N    1   0.261   0.089   0.116  0.0000  0.0000  0.0000
    1TfN      C    2   0.176   0.010   0.120  0.0000  0.0000  0.0000
    1TfN      N    3   0.069  -0.088   0.133  0.0000  0.0000  0.0000
    1TfN      S    4  -0.016  -0.102  -0.001  0.0000  0.0000  0.0000
    1TfN      O    5   0.061  -0.126  -0.123  0.0000  0.0000  0.0000
    1TfN      O    6  -0.131  -0.192   0.013  0.0000  0.0000  0.0000
    1TfN      C    7  -0.089   0.067  -0.017  0.0000  0.0000  0.0000
    1TfN      F    8  -0.193   0.070  -0.105  0.0000  0.0000  0.0000
    1TfN      F    9  -0.000   0.160  -0.061  0.0000  0.0000  0.0000
    1TfN      F   10  -0.139   0.113   0.102  0.0000  0.0000  0.0000

