A Gromacs structure file written by ASE 
   25
    1BMIM     C    1  -0.362  -0.033  -0.068  0.0000  0.0000  0.0000
    1BMIM     C    2  -0.301  -0.014   0.070  0.0000  0.0000  0.0000
    1BMIM     C    3  -0.150  -0.032   0.073  0.0000  0.0000  0.0000
    1BMIM     C    4  -0.075   0.074  -0.008  0.0000  0.0000  0.0000
    1BMIM     N    5   0.070   0.058   0.007  0.0000  0.0000  0.0000
    1BMIM     C    6   0.151   0.123   0.100  0.0000  0.0000  0.0000
    1BMIM     C    7   0.278   0.079   0.079  0.0000  0.0000  0.0000
    1BMIM     N    8   0.273  -0.012  -0.025  0.0000  0.0000  0.0000
    1BMIM     C    9   0.386  -0.085  -0.081  0.0000  0.0000  0.0000
    1BMIM     C   10   0.146  -0.024  -0.068  0.0000  0.0000  0.0000
    1BMIM     H   11  -0.335  -0.130  -0.110  0.0000  0.0000  0.0000
    1BMIM     H   12  -0.471  -0.028  -0.062  0.0000  0.0000  0.0000
    1BMIM     H   13  -0.329   0.045  -0.138  0.0000  0.0000  0.0000
    1BMIM     H   14  -0.328   0.086   0.108  0.0000  0.0000  0.0000
    1BMIM     H   15  -0.346  -0.087   0.138  0.0000  0.0000  0.0000
    1BMIM     H   16  -0.116  -0.028   0.177  0.0000  0.0000  0.0000
    1BMIM     H   17  -0.123  -0.132   0.036  0.0000  0.0000  0.0000
    1BMIM     H   18  -0.102   0.175   0.025  0.0000  0.0000  0.0000
    1BMIM     H   19  -0.098   0.067  -0.115  0.0000  0.0000  0.0000
    1BMIM     H   20   0.106   0.193   0.168  0.0000  0.0000  0.0000
    1BMIM     H   21   0.373   0.100   0.125  0.0000  0.0000  0.0000
    1BMIM     H   22   0.461  -0.013  -0.116  0.0000  0.0000  0.0000
    1BMIM     H   23   0.429  -0.148  -0.003  0.0000  0.0000  0.0000
    1BMIM     H   24   0.353  -0.147  -0.164  0.0000  0.0000  0.0000
    1BMIM     H   25   0.111  -0.088  -0.148  0.0000  0.0000  0.0000

