A Gromacs structure file written by ASE 
    9
    1FSI      O    1  -0.112  -0.188   0.010  0.0000  0.0000  0.0000
    1FSI      S    2  -0.115  -0.044  -0.010  0.0000  0.0000  0.0000
    1FSI      O    3  -0.173   0.035   0.098  0.0000  0.0000  0.0000
    1FSI      F    4  -0.233  -0.033  -0.119  0.0000  0.0000  0.0000
    1FSI      N    5   0.002   0.020  -0.092  0.0000  0.0000  0.0000
    1FSI      S    6   0.131   0.037  -0.004  0.0000  0.0000  0.0000
    1FSI      O    7   0.184  -0.079   0.066  0.0000  0.0000  0.0000
    1FSI      O    8   0.234   0.121  -0.066  0.0000  0.0000  0.0000
    1FSI      F    9   0.084   0.131   0.116  0.0000  0.0000  0.0000

