A Gromacs structure file written by ASE
 1156
    1TFSI     O    1   1.488   1.783   2.432
    1TFSI     S    2   1.355   1.724   2.448
    1TFSI     O    3   1.339   1.656   2.576
    1TFSI     N    4   1.310   1.642   2.320
    1TFSI     S    5   1.175   1.561   2.337
    1TFSI     O    6   1.129   1.501   2.212
    1TFSI     O    7   1.067   1.631   2.409
    1TFSI     C    8   1.230   1.419   2.444
    1TFSI     F    9   1.364   1.399   2.439
    1TFSI     F   10   1.174   1.302   2.401
    1TFSI     F   11   1.193   1.431   2.574
    1TFSI     C   12   1.237   1.866   2.444
    1TFSI     F   13   1.181   1.885   2.322
    1TFSI     F   14   1.301   1.984   2.472
    1TFSI     F   15   1.136   1.857   2.535
    2TFSI     O   16   2.495   1.395   0.847
    2TFSI     S   17   2.393   1.426   0.947
    2TFSI     O   18   2.339   1.306   1.012
    2TFSI     N   19   2.286   1.529   0.893
    2TFSI     S   20   2.163   1.554   0.990
    2TFSI     O   21   2.075   1.662   0.943
    2TFSI     O   22   2.195   1.565   1.133
    2TFSI     C   23   2.065   1.398   0.967
    2TFSI     F   24   2.096   1.333   0.851
    2TFSI     F   25   1.931   1.424   0.959
    2TFSI     F   26   2.077   1.309   1.070
    2TFSI     C   27   2.479   1.527   1.076
    2TFSI     F   28   2.461   1.660   1.060
    2TFSI     F   29   2.615   1.508   1.071
    2TFSI     F   30   2.443   1.495   1.204
    3TFSI     O   31   0.984   2.209   1.279
    3TFSI     S   32   0.863   2.291   1.271
    3TFSI     O   33   0.890   2.426   1.221
    3TFSI     N   34   0.776   2.282   1.403
    3TFSI     S   35   0.653   2.382   1.408
    3TFSI     O   36   0.566   2.358   1.524
    3TFSI     O   37   0.577   2.397   1.283
    3TFSI     C   38   0.737   2.543   1.441
    3TFSI     F   39   0.862   2.528   1.494
    3TFSI     F   40   0.668   2.616   1.534
    3TFSI     F   41   0.747   2.624   1.332
    3TFSI     C   42   0.753   2.206   1.148
    3TFSI     F   43   0.660   2.127   1.207
    3TFSI     F   44   0.825   2.122   1.067
    3TFSI     F   45   0.689   2.292   1.064
    4TFSI     O   46   2.178   1.548   1.907
    4TFSI     S   47   2.253   1.661   1.962
    4TFSI     O   48   2.306   1.634   2.096
    4TFSI     N   49   2.176   1.798   1.944
    4TFSI     S   50   2.243   1.922   2.016
    4TFSI     O   51   2.178   2.049   1.983
    4TFSI     O   52   2.390   1.930   2.007
    4TFSI     C   53   2.201   1.889   2.194
    4TFSI     F   54   2.095   1.804   2.208
    4TFSI     F   55   2.163   2.004   2.257
    4TFSI     F   56   2.305   1.840   2.267
    4TFSI     C   57   2.397   1.685   1.848
    4TFSI     F   58   2.376   1.782   1.755
    4TFSI     F   59   2.422   1.571   1.775
    4TFSI     F   60   2.514   1.713   1.912
    5TFSI     O   61   1.026   1.797   0.097
    5TFSI     S   62   1.063   1.688   0.189
    5TFSI     O   63   1.183   1.719   0.267
    5TFSI     N   64   1.061   1.547   0.118
    5TFSI     S   65   1.116   1.428   0.206
    5TFSI     O   66   1.098   1.297   0.142
    5TFSI     O   67   1.076   1.428   0.347
    5TFSI     C   68   1.299   1.459   0.201
    5TFSI     F   69   1.336   1.538   0.096
    5TFSI     F   70   1.368   1.342   0.184
    5TFSI     F   71   1.349   1.514   0.315
    5TFSI     C   72   0.920   1.672   0.306
    5TFSI     F   73   0.834   1.573   0.272
    5TFSI     F   74   0.845   1.787   0.308
    5TFSI     F   75   0.958   1.652   0.436
    6TFSI     O   76   1.384   2.413   1.172
    6TFSI     S   77   1.484   2.413   1.064
    6TFSI     O   78   1.526   2.279   1.026
    6TFSI     N   79   1.600   2.518   1.091
    6TFSI     S   80   1.720   2.511   0.987
    6TFSI     O   81   1.816   2.620   1.006
    6TFSI     O   82   1.682   2.493   0.846
    6TFSI     C   83   1.807   2.357   1.041
    6TFSI     F   84   1.778   2.322   1.170
    6TFSI     F   85   1.943   2.375   1.039
    6TFSI     F   86   1.785   2.250   0.961
    6TFSI     C   87   1.399   2.490   0.918
    6TFSI     F   88   1.426   2.622   0.904
    6TFSI     F   89   1.262   2.483   0.932
    6TFSI     F   90   1.426   2.427   0.800
    7TFSI     O   91   1.334   0.576   0.162
    7TFSI     S   92   1.249   0.650   0.256
    7TFSI     O   93   1.110   0.656   0.213
    7TFSI     N   94   1.315   0.787   0.300
    7TFSI     S   95   1.221   0.880   0.388
    7TFSI     O   96   1.291   0.998   0.440
    7TFSI     O   97   1.142   0.812   0.491
    7TFSI     C   98   1.103   0.945   0.261
    7TFSI     F   99   1.151   0.935   0.134
    7TFSI     F  100   1.078   1.078   0.280
    7TFSI     F  101   0.980   0.885   0.265
    7TFSI     C  102   1.256   0.554   0.414
    7TFSI     F  103   1.346   0.604   0.503
    7TFSI     F  104   1.296   0.424   0.392
    7TFSI     F  105   1.136   0.544   0.478
    8TFSI     O  106   1.471   0.098   0.957
    8TFSI     S  107   1.578   0.193   0.925
    8TFSI     O  108   1.552   0.267   0.801
    8TFSI     N  109   1.722   0.128   0.938
    8TFSI     S  110   1.840   0.220   0.888
    8TFSI     O  111   1.972   0.162   0.917
    8TFSI     O  112   1.832   0.362   0.925
    8TFSI     C  113   1.821   0.209   0.704
    8TFSI     F  114   1.749   0.100   0.665
    8TFSI     F  115   1.943   0.196   0.643
    8TFSI     F  116   1.765   0.320   0.647
    8TFSI     C  117   1.580   0.314   1.065
    8TFSI     F  118   1.674   0.286   1.158
    8TFSI     F  119   1.460   0.313   1.133
    8TFSI     F  120   1.597   0.443   1.025
    9TFSI     O  121   1.446   1.574   1.537
    9TFSI     S  122   1.554   1.574   1.437
    9TFSI     O  123   1.517   1.502   1.315
    9TFSI     N  124   1.694   1.537   1.501
    9TFSI     S  125   1.811   1.518   1.395
    9TFSI     O  126   1.941   1.499   1.459
    9TFSI     O  127   1.815   1.615   1.286
    9TFSI     C  128   1.768   1.353   1.321
    9TFSI     F  129   1.686   1.279   1.401
    9TFSI     F  130   1.881   1.277   1.305
    9TFSI     F  131   1.712   1.361   1.197
    9TFSI     C  132   1.580   1.752   1.393
    9TFSI     F  133   1.683   1.809   1.460
    9TFSI     F  134   1.470   1.828   1.425
    9TFSI     F  135   1.600   1.773   1.260
   10TFSI     O  136   0.373   0.924   1.167
   10TFSI     S  137   0.345   0.781   1.151
   10TFSI     O  138   0.364   0.707   1.275
   10TFSI     N  139   0.413   0.720   1.022
   10TFSI     S  140   0.400   0.563   1.009
   10TFSI     O  141   0.450   0.513   0.880
   10TFSI     O  142   0.270   0.506   1.044
   10TFSI     C  143   0.522   0.505   1.136
   10TFSI     F  144   0.614   0.600   1.168
   10TFSI     F  145   0.595   0.399   1.088
   10TFSI     F  146   0.465   0.460   1.251
   10TFSI     C  147   0.165   0.772   1.106
   10TFSI     F  148   0.145   0.760   0.972
   10TFSI     F  149   0.099   0.887   1.142
   10TFSI     F  150   0.098   0.670   1.168
   11TFSI     O  151   0.307   2.303   2.204
   11TFSI     S  152   0.413   2.215   2.254
   11TFSI     O  153   0.516   2.288   2.328
   11TFSI     N  154   0.465   2.115   2.142
   11TFSI     S  155   0.591   2.030   2.184
   11TFSI     O  156   0.626   1.928   2.084
   11TFSI     O  157   0.590   1.976   2.321
   11TFSI     C  158   0.727   2.156   2.175
   11TFSI     F  159   0.694   2.263   2.098
   11TFSI     F  160   0.839   2.103   2.117
   11TFSI     F  161   0.768   2.202   2.296
   11TFSI     C  162   0.329   2.098   2.371
   11TFSI     F  163   0.298   1.979   2.313
   11TFSI     F  164   0.210   2.149   2.414
   11TFSI     F  165   0.401   2.073   2.484
   12TFSI     O  166   0.617   1.473   0.759
   12TFSI     S  167   0.572   1.595   0.828
   12TFSI     O  168   0.542   1.571   0.969
   12TFSI     N  169   0.463   1.673   0.745
   12TFSI     S  170   0.397   1.796   0.822
   12TFSI     O  171   0.308   1.875   0.736
   12TFSI     O  172   0.490   1.879   0.899
   12TFSI     C  173   0.286   1.710   0.942
   12TFSI     F  174   0.257   1.582   0.905
   12TFSI     F  175   0.165   1.773   0.951
   12TFSI     F  176   0.334   1.707   1.070
   12TFSI     C  177   0.716   1.712   0.819
   12TFSI     F  178   0.704   1.802   0.718
   12TFSI     F  179   0.833   1.645   0.796
   12TFSI     F  180   0.737   1.782   0.935
   13TFSI     O  181   0.351   0.586   2.331
   13TFSI     S  182   0.424   0.698   2.272
   13TFSI     O  183   0.380   0.729   2.136
   13TFSI     N  184   0.581   0.685   2.293
   13TFSI     S  185   0.666   0.795   2.217
   13TFSI     O  186   0.809   0.789   2.251
   13TFSI     O  187   0.614   0.931   2.220
   13TFSI     C  188   0.656   0.735   2.041
   13TFSI     F  189   0.622   0.603   2.032
   13TFSI     F  190   0.777   0.746   1.979
   13TFSI     F  191   0.570   0.807   1.964
   13TFSI     C  192   0.385   0.844   2.380
   13TFSI     F  193   0.481   0.869   2.472
   13TFSI     F  194   0.270   0.823   2.452
   13TFSI     F  195   0.363   0.959   2.310
   14TFSI     O  196   2.599   1.059   1.094
   14TFSI     S  197   2.472   0.986   1.102
   14TFSI     O  198   2.365   1.051   1.027
   14TFSI     N  199   2.437   0.943   1.251
   14TFSI     S  200   2.293   0.879   1.268
   14TFSI     O  201   2.271   0.827   1.404
   14TFSI     O  202   2.251   0.785   1.164
   14TFSI     C  203   2.184   1.028   1.255
   14TFSI     F  204   2.250   1.145   1.279
   14TFSI     F  205   2.084   1.025   1.348
   14TFSI     F  206   2.120   1.040   1.135
   14TFSI     C  207   2.505   0.821   1.024
   14TFSI     F  208   2.532   0.724   1.115
   14TFSI     F  209   2.616   0.826   0.942
   14TFSI     F  210   2.404   0.777   0.944
   15TFSI     O  211   1.137   0.418   1.674
   15TFSI     S  212   1.132   0.563   1.654
   15TFSI     O  213   1.236   0.611   1.563
   15TFSI     N  214   1.116   0.642   1.791
   15TFSI     S  215   1.127   0.799   1.778
   15TFSI     O  216   1.097   0.868   1.904
   15TFSI     O  217   1.059   0.859   1.663
   15TFSI     C  218   1.310   0.822   1.753
   15TFSI     F  219   1.383   0.715   1.795
   15TFSI     F  220   1.356   0.928   1.826
   15TFSI     F  221   1.345   0.849   1.624
   15TFSI     C  222   0.967   0.596   1.575
   15TFSI     F  223   0.872   0.635   1.664
   15TFSI     F  224   0.917   0.483   1.516
   15TFSI     F  225   0.972   0.690   1.475
   16TFSI     O  226   0.319   1.283   0.096
   16TFSI     S  227   0.414   1.209   0.180
   16TFSI     O  228   0.481   1.294   0.278
   16TFSI     N  229   0.508   1.114   0.094
   16TFSI     S  230   0.624   1.045   0.177
   16TFSI     O  231   0.698   0.946   0.097
   16TFSI     O  232   0.587   0.994   0.309
   16TFSI     C  233   0.742   1.185   0.202
   16TFSI     F  234   0.723   1.287   0.113
   16TFSI     F  235   0.871   1.145   0.184
   16TFSI     F  236   0.739   1.238   0.328
   16TFSI     C  237   0.312   1.085   0.272
   16TFSI     F  238   0.313   0.963   0.215
   16TFSI     F  239   0.180   1.123   0.275
   16TFSI     F  240   0.348   1.071   0.403
   17TFSI     O  241   2.438   2.484   0.949
   17TFSI     S  242   2.370   2.355   0.929
   17TFSI     O  243   2.323   2.297   1.055
   17TFSI     N  244   2.452   2.259   0.834
   17TFSI     S  245   2.393   2.112   0.823
   17TFSI     O  246   2.462   2.031   0.721
   17TFSI     O  247   2.247   2.102   0.813
   17TFSI     C  248   2.442   2.039   0.986
   17TFSI     F  249   2.545   2.106   1.045
   17TFSI     F  250   2.487   1.911   0.970
   17TFSI     F  251   2.340   2.030   1.076
   17TFSI     C  252   2.222   2.393   0.825
   17TFSI     F  253   2.243   2.368   0.693
   17TFSI     F  254   2.190   2.526   0.832
   17TFSI     F  255   2.109   2.327   0.863
   18FSI      O  256   0.522   0.714   0.350
   18FSI      S  257   0.584   0.592   0.300
   18FSI      O  258   0.730   0.594   0.292
   18FSI      F  259   0.548   0.603   0.144
   18FSI      N  260   0.515   0.456   0.334
   18FSI      S  261   0.546   0.410   0.481
   18FSI      O  262   0.520   0.502   0.590
   18FSI      O  263   0.508   0.272   0.509
   18FSI      F  264   0.705   0.398   0.484
   19FSI      O  265   0.946   1.414   1.324
   19FSI      S  266   0.925   1.558   1.328
   19FSI      O  267   0.967   1.625   1.450
   19FSI      F  268   0.765   1.562   1.348
   19FSI      N  269   0.936   1.636   1.194
   19FSI      S  270   1.086   1.662   1.155
   19FSI      O  271   1.177   1.548   1.148
   19FSI      O  272   1.104   1.758   1.045
   19FSI      F  273   1.145   1.745   1.277
   20FSI      O  274   2.254   1.685   0.436
   20FSI      S  275   2.306   1.802   0.505
   20FSI      O  276   2.229   1.925   0.490
   20FSI      F  277   2.431   1.836   0.410
   20FSI      N  278   2.382   1.779   0.640
   20FSI      S  279   2.281   1.758   0.759
   20FSI      O  280   2.179   1.654   0.747
   20FSI      O  281   2.344   1.764   0.891
   20FSI      F  282   2.195   1.891   0.761
   21FSI      O  283   1.795   1.466   0.536
   21FSI      S  284   1.672   1.443   0.461
   21FSI      O  285   1.564   1.377   0.533
   21FSI      F  286   1.720   1.322   0.366
   21FSI      N  287   1.634   1.548   0.352
   21FSI      S  288   1.568   1.676   0.416
   21FSI      O  289   1.639   1.746   0.522
   21FSI      O  290   1.505   1.765   0.318
   21FSI      F  291   1.440   1.619   0.492
   22FSI      O  292   2.001   1.643   1.995
   22FSI      S  293   1.925   1.581   1.888
   22FSI      O  294   1.812   1.658   1.836
   22FSI      F  295   1.846   1.468   1.971
   22FSI      N  296   2.003   1.490   1.788
   22FSI      S  297   2.080   1.575   1.681
   22FSI      O  298   2.171   1.679   1.727
   22FSI      O  299   2.132   1.496   1.569
   22FSI      F  300   1.966   1.659   1.608
   23FSI      O  301   2.600   0.712   0.541
   23FSI      S  302   2.505   0.616   0.595
   23FSI      O  303   2.392   0.673   0.668
   23FSI      F  304   2.591   0.558   0.718
   23FSI      N  305   2.481   0.484   0.515
   23FSI      S  306   2.385   0.507   0.394
   23FSI      O  307   2.417   0.612   0.298
   23FSI      O  308   2.337   0.383   0.332
   23FSI      F  309   2.250   0.561   0.460
   24FSI      O  310   0.147   0.749   0.638
   24FSI      S  311   0.278   0.701   0.597
   24FSI      O  312   0.309   0.562   0.629
   24FSI      F  313   0.370   0.776   0.706
   24FSI      N  314   0.339   0.761   0.466
   24FSI      S  315   0.277   0.694   0.338
   24FSI      O  316   0.132   0.691   0.323
   24FSI      O  317   0.349   0.725   0.214
   24FSI      F  318   0.312   0.539   0.355
   25FSI      O  319   1.426   1.097   1.697
   25FSI      S  320   1.569   1.104   1.721
   25FSI      O  321   1.655   1.058   1.612
   25FSI      F  322   1.587   0.981   1.823
   25FSI      N  323   1.622   1.220   1.811
   25FSI      S  324   1.632   1.355   1.731
   25FSI      O  325   1.514   1.403   1.661
   25FSI      O  326   1.706   1.460   1.801
   25FSI      F  327   1.732   1.322   1.611
   26FSI      O  328   2.526   2.302   1.581
   26FSI      S  329   2.419   2.205   1.562
   26FSI      O  330   2.400   2.108   1.670
   26FSI      F  331   2.486   2.109   1.452
   26FSI      N  332   2.292   2.251   1.483
   26FSI      S  333   2.196   2.336   1.573
   26FSI      O  334   2.250   2.452   1.643
   26FSI      O  335   2.064   2.359   1.514
   26FSI      F  336   2.159   2.239   1.693
   27FSI      O  337   0.487   0.630   1.531
   27FSI      S  338   0.517   0.608   1.671
   27FSI      O  339   0.544   0.728   1.751
   27FSI      F  340   0.666   0.549   1.659
   27FSI      N  341   0.447   0.488   1.742
   27FSI      S  342   0.300   0.523   1.782
   27FSI      O  343   0.209   0.572   1.680
   27FSI      O  344   0.238   0.425   1.873
   27FSI      F  345   0.314   0.649   1.879
   28FSI      O  346   1.640   1.000   1.375
   28FSI      S  347   1.502   1.044   1.372
   28FSI      O  348   1.463   1.125   1.256
   28FSI      F  349   1.507   1.159   1.485
   28FSI      N  350   1.394   0.950   1.435
   28FSI      S  351   1.356   0.833   1.337
   28FSI      O  352   1.463   0.749   1.283
   28FSI      O  353   1.237   0.758   1.378
   28FSI      F  354   1.302   0.907   1.207
   29FSI      O  355   2.197   0.696   2.431
   29FSI      S  356   2.309   0.604   2.439
   29FSI      O  357   2.286   0.480   2.511
   29FSI      F  358   2.401   0.682   2.546
   29FSI      N  359   2.409   0.600   2.318
   29FSI      S  360   2.351   0.515   2.199
   29FSI      O  361   2.219   0.548   2.147
   29FSI      O  362   2.449   0.485   2.095
   29FSI      F  363   2.328   0.371   2.262
   30FSI      O  364   1.457   1.612   0.723
   30FSI      S  365   1.420   1.530   0.837
   30FSI      O  366   1.418   1.386   0.815
   30FSI      F  367   1.261   1.559   0.841
   30FSI      N  368   1.460   1.581   0.979
   30FSI      S  369   1.611   1.552   1.010
   30FSI      O  370   1.712   1.597   0.917
   30FSI      O  371   1.647   1.572   1.151
   30FSI      F  372   1.622   1.393   0.999
   31FSI      O  373   0.777   0.565   1.854
   31FSI      S  374   0.863   0.452   1.886
   31FSI      O  375   0.819   0.367   1.996
   31FSI      F  376   0.985   0.530   1.958
   31FSI      N  377   0.941   0.385   1.769
   31FSI      S  378   0.849   0.288   1.687
   31FSI      O  379   0.724   0.338   1.633
   31FSI      O  380   0.922   0.201   1.594
   31FSI      F  381   0.800   0.181   1.795
   32FSI      O  382   0.441   1.819   2.360
   32FSI      S  383   0.361   1.699   2.344
   32FSI      O  384   0.253   1.680   2.440
   32FSI      F  385   0.466   1.588   2.397
   32FSI      N  386   0.339   1.646   2.199
   32FSI      S  387   0.228   1.727   2.124
   32FSI      O  388   0.240   1.872   2.117
   32FSI      O  389   0.183   1.665   1.999
   32FSI      F  390   0.098   1.708   2.215
   33FSI      O  391   0.908   1.436   0.516
   33FSI      S  392   1.004   1.328   0.538
   33FSI      O  393   1.019   1.232   0.430
   33FSI      F  394   0.921   1.239   0.643
   33FSI      N  395   1.130   1.361   0.625
   33FSI      S  396   1.239   1.437   0.542
   33FSI      O  397   1.201   1.559   0.472
   33FSI      O  398   1.369   1.446   0.609
   33FSI      F  399   1.273   1.338   0.422
   34FSI      O  400   0.778   1.160   1.385
   34FSI      S  401   0.874   1.059   1.426
   34FSI      O  402   0.958   1.092   1.541
   34FSI      F  403   0.983   1.073   1.308
   34FSI      N  404   0.834   0.909   1.407
   34FSI      S  405   0.737   0.860   1.520
   34FSI      O  406   0.616   0.935   1.546
   34FSI      O  407   0.718   0.714   1.523
   34FSI      F  408   0.821   0.882   1.654
   35EMIM     C  409   0.929   1.405   1.029
   35EMIM     C  410   1.002   1.393   0.897
   35EMIM     N  411   1.099   1.283   0.900
   35EMIM     C  412   1.075   1.152   0.860
   35EMIM     C  413   1.191   1.083   0.881
   35EMIM     N  414   1.283   1.173   0.931
   35EMIM     C  415   1.421   1.143   0.968
   35EMIM     C  416   1.226   1.293   0.943
   35EMIM     H  417   0.858   1.489   1.025
   35EMIM     H  418   0.874   1.314   1.052
   35EMIM     H  419   0.999   1.424   1.111
   35EMIM     H  420   1.057   1.485   0.875
   35EMIM     H  421   0.932   1.375   0.815
   35EMIM     H  422   0.978   1.125   0.823
   35EMIM     H  423   1.221   0.980   0.865
   35EMIM     H  424   1.471   1.233   1.002
   35EMIM     H  425   1.421   1.068   1.048
   35EMIM     H  426   1.473   1.103   0.880
   35EMIM     H  427   1.273   1.384   0.980
   36EMIM     C  428   0.609   2.072   1.756
   36EMIM     C  429   0.668   2.129   1.884
   36EMIM     N  430   0.693   2.273   1.871
   36EMIM     C  431   0.605   2.375   1.905
   36EMIM     C  432   0.668   2.492   1.876
   36EMIM     N  433   0.793   2.459   1.825
   36EMIM     C  434   0.895   2.554   1.780
   36EMIM     C  435   0.806   2.326   1.822
   36EMIM     H  436   0.592   1.964   1.768
   36EMIM     H  437   0.515   2.120   1.732
   36EMIM     H  438   0.677   2.087   1.672
   36EMIM     H  439   0.762   2.080   1.908
   36EMIM     H  440   0.599   2.113   1.968
   36EMIM     H  441   0.509   2.350   1.946
   36EMIM     H  442   0.641   2.596   1.885
   36EMIM     H  443   0.984   2.500   1.748
   36EMIM     H  444   0.855   2.613   1.697
   36EMIM     H  445   0.920   2.621   1.863
   36EMIM     H  446   0.893   2.270   1.787
   37EMIM     C  447   2.323   2.247   1.945
   37EMIM     C  448   2.206   2.330   1.992
   37EMIM     N  449   2.092   2.246   2.030
   37EMIM     C  450   2.066   2.197   2.157
   37EMIM     C  451   1.952   2.123   2.148
   37EMIM     N  452   1.911   2.129   2.015
   37EMIM     C  453   1.793   2.063   1.959
   37EMIM     C  454   1.997   2.203   1.945
   37EMIM     H  455   2.406   2.312   1.916
   37EMIM     H  456   2.357   2.179   2.023
   37EMIM     H  457   2.295   2.186   1.858
   37EMIM     H  458   2.173   2.398   1.913
   37EMIM     H  459   2.235   2.391   2.079
   37EMIM     H  460   2.132   2.222   2.239
   37EMIM     H  461   1.892   2.066   2.218
   37EMIM     H  462   1.784   2.087   1.854
   37EMIM     H  463   1.803   1.955   1.972
   37EMIM     H  464   1.704   2.098   2.013
   37EMIM     H  465   1.992   2.225   1.839
   38EMIM     C  466   0.696   0.181   0.739
   38EMIM     C  467   0.641   0.299   0.816
   38EMIM     N  468   0.502   0.275   0.857
   38EMIM     C  469   0.461   0.219   0.978
   38EMIM     C  470   0.325   0.214   0.974
   38EMIM     N  471   0.286   0.267   0.852
   38EMIM     C  472   0.148   0.280   0.805
   38EMIM     C  473   0.394   0.302   0.782
   38EMIM     H  474   0.800   0.202   0.708
   38EMIM     H  475   0.696   0.091   0.800
   38EMIM     H  476   0.637   0.162   0.649
   38EMIM     H  477   0.642   0.389   0.754
   38EMIM     H  478   0.701   0.318   0.905
   38EMIM     H  479   0.535   0.191   1.051
   38EMIM     H  480   0.249   0.180   1.043
   38EMIM     H  481   0.147   0.327   0.707
   38EMIM     H  482   0.102   0.181   0.799
   38EMIM     H  483   0.092   0.342   0.876
   38EMIM     H  484   0.395   0.346   0.683
   39EMIM     C  485   2.518   0.638   1.823
   39EMIM     C  486   2.426   0.646   1.703
   39EMIM     N  487   2.468   0.753   1.612
   39EMIM     C  488   2.555   0.740   1.504
   39EMIM     C  489   2.567   0.864   1.447
   39EMIM     N  490   2.487   0.950   1.522
   39EMIM     C  491   2.471   1.093   1.498
   39EMIM     C  492   2.429   0.881   1.622
   39EMIM     H  493   2.484   0.558   1.890
   39EMIM     H  494   2.620   0.617   1.793
   39EMIM     H  495   2.517   0.732   1.879
   39EMIM     H  496   2.324   0.667   1.734
   39EMIM     H  497   2.427   0.552   1.648
   39EMIM     H  498   2.596   0.643   1.481
   39EMIM     H  499   2.621   0.903   1.363
   39EMIM     H  500   2.401   1.134   1.570
   39EMIM     H  501   2.568   1.142   1.508
   39EMIM     H  502   2.432   1.108   1.397
   39EMIM     H  503   2.362   0.922   1.697
   40EMIM     C  504   1.574   0.949   0.149
   40EMIM     C  505   1.587   0.977   0.297
   40EMIM     N  506   1.660   0.870   0.365
   40EMIM     C  507   1.797   0.866   0.388
   40EMIM     C  508   1.822   0.749   0.453
   40EMIM     N  509   1.700   0.684   0.468
   40EMIM     C  510   1.680   0.554   0.532
   40EMIM     C  511   1.604   0.759   0.414
   40EMIM     H  512   1.519   1.030   0.100
   40EMIM     H  513   1.672   0.942   0.102
   40EMIM     H  514   1.521   0.856   0.131
   40EMIM     H  515   1.489   0.986   0.343
   40EMIM     H  516   1.640   1.072   0.314
   40EMIM     H  517   1.859   0.948   0.355
   40EMIM     H  518   1.912   0.701   0.491
   40EMIM     H  519   1.574   0.530   0.533
   40EMIM     H  520   1.736   0.478   0.477
   40EMIM     H  521   1.717   0.559   0.635
   40EMIM     H  522   1.498   0.734   0.411
   41EMIM     C  523   1.646   1.192   2.551
   41EMIM     C  524   1.714   1.154   2.422
   41EMIM     N  525   1.824   1.059   2.445
   41EMIM     C  526   1.814   0.920   2.442
   41EMIM     C  527   1.938   0.871   2.471
   41EMIM     N  528   2.021   0.981   2.491
   41EMIM     C  529   2.163   0.976   2.525
   41EMIM     C  530   1.950   1.093   2.476
   41EMIM     H  531   1.565   1.263   2.531
   41EMIM     H  532   1.603   1.104   2.599
   41EMIM     H  533   1.716   1.238   2.620
   41EMIM     H  534   1.756   1.242   2.373
   41EMIM     H  535   1.643   1.108   2.352
   41EMIM     H  536   1.719   0.874   2.419
   41EMIM     H  537   1.980   0.772   2.480
   41EMIM     H  538   2.203   1.077   2.531
   41EMIM     H  539   2.175   0.925   2.620
   41EMIM     H  540   2.216   0.921   2.446
   41EMIM     H  541   1.987   1.195   2.485
   42EMIM     C  542   2.548   1.633   2.436
   42EMIM     C  543   2.512   1.600   2.293
   42EMIM     N  544   2.429   1.479   2.286
   42EMIM     C  545   2.290   1.476   2.287
   42EMIM     C  546   2.254   1.344   2.280
   42EMIM     N  547   2.372   1.271   2.274
   42EMIM     C  548   2.381   1.125   2.267
   42EMIM     C  549   2.476   1.354   2.279
   42EMIM     H  550   2.611   1.723   2.439
   42EMIM     H  551   2.459   1.651   2.496
   42EMIM     H  552   2.604   1.551   2.482
   42EMIM     H  553   2.602   1.582   2.234
   42EMIM     H  554   2.457   1.683   2.247
   42EMIM     H  555   2.234   1.568   2.293
   42EMIM     H  556   2.160   1.292   2.278
   42EMIM     H  557   2.486   1.095   2.260
   42EMIM     H  558   2.335   1.081   2.355
   42EMIM     H  559   2.328   1.091   2.177
   42EMIM     H  560   2.581   1.326   2.276
   43EMIM     C  561   1.203   0.539   2.560
   43EMIM     C  562   1.135   0.547   2.424
   43EMIM     N  563   0.991   0.572   2.439
   43EMIM     C  564   0.929   0.696   2.440
   43EMIM     C  565   0.796   0.674   2.457
   43EMIM     N  566   0.779   0.536   2.465
   43EMIM     C  567   0.652   0.467   2.484
   43EMIM     C  568   0.898   0.476   2.455
   43EMIM     H  569   1.310   0.519   2.546
   43EMIM     H  570   1.191   0.632   2.614
   43EMIM     H  571   1.160   0.458   2.620
   43EMIM     H  572   1.147   0.453   2.370
   43EMIM     H  573   1.178   0.627   2.364
   43EMIM     H  574   0.989   0.785   2.429
   43EMIM     H  575   0.709   0.738   2.463
   43EMIM     H  576   0.668   0.360   2.483
   43EMIM     H  577   0.607   0.498   2.579
   43EMIM     H  578   0.584   0.494   2.402
   43EMIM     H  579   0.917   0.369   2.458
   44EMIM     C  580   1.464   0.286   1.412
   44EMIM     C  581   1.408   0.426   1.395
   44EMIM     N  582   1.504   0.528   1.438
   44EMIM     C  583   1.597   0.591   1.356
   44EMIM     C  584   1.667   0.677   1.435
   44EMIM     N  585   1.615   0.664   1.564
   44EMIM     C  586   1.661   0.737   1.682
   44EMIM     C  587   1.518   0.573   1.563
   44EMIM     H  588   1.390   0.212   1.381
   44EMIM     H  589   1.554   0.273   1.352
   44EMIM     H  590   1.490   0.267   1.516
   44EMIM     H  591   1.317   0.438   1.455
   44EMIM     H  592   1.381   0.444   1.290
   44EMIM     H  593   1.601   0.567   1.251
   44EMIM     H  594   1.748   0.747   1.418
   44EMIM     H  595   1.601   0.709   1.768
   44EMIM     H  596   1.766   0.713   1.701
   44EMIM     H  597   1.651   0.844   1.663
   44EMIM     H  598   1.459   0.541   1.649
   45EMIM     C  599   0.793   0.199   1.227
   45EMIM     C  600   0.843   0.278   1.346
   45EMIM     N  601   0.857   0.421   1.313
   45EMIM     C  602   0.760   0.518   1.332
   45EMIM     C  603   0.813   0.636   1.287
   45EMIM     N  604   0.942   0.607   1.243
   45EMIM     C  605   1.036   0.703   1.186
   45EMIM     C  606   0.966   0.476   1.259
   45EMIM     H  607   0.784   0.093   1.254
   45EMIM     H  608   0.695   0.235   1.196
   45EMIM     H  609   0.861   0.208   1.143
   45EMIM     H  610   0.941   0.242   1.378
   45EMIM     H  611   0.775   0.269   1.431
   45EMIM     H  612   0.665   0.492   1.375
   45EMIM     H  613   0.778   0.737   1.281
   45EMIM     H  614   1.130   0.653   1.163
   45EMIM     H  615   0.993   0.746   1.095
   45EMIM     H  616   1.054   0.783   1.259
   45EMIM     H  617   1.058   0.424   1.233
   46EMIM     C  618   1.108   1.226   2.016
   46EMIM     C  619   1.241   1.183   1.960
   46EMIM     N  620   1.253   1.217   1.817
   46EMIM     C  621   1.307   1.335   1.766
   46EMIM     C  622   1.297   1.326   1.630
   46EMIM     N  623   1.238   1.203   1.602
   46EMIM     C  624   1.207   1.153   1.469
   46EMIM     C  625   1.211   1.140   1.716
   46EMIM     H  626   1.101   1.199   2.122
   46EMIM     H  627   1.095   1.334   2.007
   46EMIM     H  628   1.025   1.178   1.962
   46EMIM     H  629   1.254   1.075   1.969
   46EMIM     H  630   1.324   1.231   2.014
   46EMIM     H  631   1.346   1.409   1.833
   46EMIM     H  632   1.325   1.391   1.548
   46EMIM     H  633   1.164   1.053   1.476
   46EMIM     H  634   1.137   1.220   1.419
   46EMIM     H  635   1.300   1.147   1.410
   46EMIM     H  636   1.165   1.042   1.726
   47EMIM     C  637   1.203   0.312   2.055
   47EMIM     C  638   1.195   0.341   1.906
   47EMIM     N  639   1.320   0.305   1.838
   47EMIM     C  640   1.349   0.182   1.780
   47EMIM     C  641   1.476   0.192   1.730
   47EMIM     N  642   1.520   0.321   1.758
   47EMIM     C  643   1.651   0.375   1.723
   47EMIM     C  644   1.425   0.387   1.825
   47EMIM     H  645   1.109   0.340   2.104
   47EMIM     H  646   1.222   0.207   2.074
   47EMIM     H  647   1.284   0.370   2.101
   47EMIM     H  648   1.176   0.446   1.888
   47EMIM     H  649   1.113   0.283   1.861
   47EMIM     H  650   1.276   0.104   1.782
   47EMIM     H  651   1.541   0.125   1.676
   47EMIM     H  652   1.658   0.479   1.755
   47EMIM     H  653   1.729   0.316   1.772
   47EMIM     H  654   1.664   0.370   1.615
   47EMIM     H  655   1.431   0.489   1.861
   48EMIM     C  656   1.895   1.835   0.614
   48EMIM     C  657   1.869   1.733   0.723
   48EMIM     N  658   1.806   1.795   0.840
   48EMIM     C  659   1.669   1.806   0.863
   48EMIM     C  660   1.654   1.872   0.981
   48EMIM     N  661   1.782   1.899   1.028
   48EMIM     C  662   1.814   1.969   1.153
   48EMIM     C  663   1.872   1.853   0.941
   48EMIM     H  664   1.943   1.786   0.529
   48EMIM     H  665   1.803   1.880   0.580
   48EMIM     H  666   1.961   1.914   0.650
   48EMIM     H  667   1.962   1.687   0.756
   48EMIM     H  668   1.803   1.653   0.687
   48EMIM     H  669   1.600   1.765   0.791
   48EMIM     H  670   1.569   1.903   1.040
   48EMIM     H  671   1.921   1.973   1.166
   48EMIM     H  672   1.772   2.070   1.149
   48EMIM     H  673   1.769   1.914   1.237
   48EMIM     H  674   1.980   1.860   0.951
   49EMIM     C  675   0.185   1.603   1.321
   49EMIM     C  676   0.311   1.613   1.404
   49EMIM     N  677   0.428   1.569   1.327
   49EMIM     C  678   0.511   1.650   1.250
   49EMIM     C  679   0.606   1.568   1.196
   49EMIM     N  680   0.579   1.440   1.241
   49EMIM     C  681   0.655   1.320   1.207
   49EMIM     C  682   0.471   1.442   1.319
   49EMIM     H  683   0.099   1.636   1.380
   49EMIM     H  684   0.191   1.665   1.232
   49EMIM     H  685   0.167   1.500   1.289
   49EMIM     H  686   0.304   1.551   1.493
   49EMIM     H  687   0.328   1.717   1.436
   49EMIM     H  688   0.492   1.755   1.245
   49EMIM     H  689   0.691   1.584   1.131
   49EMIM     H  690   0.614   1.233   1.259
   49EMIM     H  691   0.652   1.304   1.099
   49EMIM     H  692   0.760   1.334   1.238
   49EMIM     H  693   0.426   1.356   1.369
   50EMIM     C  694   0.301   1.395   0.471
   50EMIM     C  695   0.161   1.345   0.502
   50EMIM     N  696   0.156   1.277   0.631
   50EMIM     C  697   0.127   1.336   0.754
   50EMIM     C  698   0.135   1.238   0.848
   50EMIM     N  699   0.168   1.121   0.780
   50EMIM     C  700   0.188   0.990   0.842
   50EMIM     C  701   0.182   1.147   0.650
   50EMIM     H  702   0.302   1.445   0.373
   50EMIM     H  703   0.335   1.466   0.546
   50EMIM     H  704   0.372   1.312   0.468
   50EMIM     H  705   0.127   1.275   0.426
   50EMIM     H  706   0.090   1.429   0.504
   50EMIM     H  707   0.103   1.441   0.758
   50EMIM     H  708   0.120   1.234   0.955
   50EMIM     H  709   0.211   0.916   0.766
   50EMIM     H  710   0.270   0.996   0.914
   50EMIM     H  711   0.096   0.961   0.895
   50EMIM     H  712   0.208   1.075   0.573
   51EMIM     C  713   0.851   1.789   1.851
   51EMIM     C  714   0.896   1.792   1.996
   51EMIM     N  715   1.041   1.777   2.007
   51EMIM     C  716   1.135   1.880   2.010
   51EMIM     C  717   1.257   1.821   2.020
   51EMIM     N  718   1.236   1.684   2.023
   51EMIM     C  719   1.340   1.581   2.031
   51EMIM     C  720   1.105   1.659   2.014
   51EMIM     H  721   0.742   1.800   1.845
   51EMIM     H  722   0.897   1.870   1.794
   51EMIM     H  723   0.879   1.694   1.804
   51EMIM     H  724   0.849   1.712   2.052
   51EMIM     H  725   0.867   1.887   2.043
   51EMIM     H  726   1.101   1.982   2.006
   51EMIM     H  727   1.358   1.858   2.026
   51EMIM     H  728   1.295   1.483   2.035
   51EMIM     H  729   1.406   1.589   1.945
   51EMIM     H  730   1.398   1.598   2.123
   51EMIM     H  731   1.058   1.561   2.013
   52BMIM     C  732   0.795   0.892   0.958
   52BMIM     C  733   0.734   0.753   0.971
   52BMIM     C  734   0.755   0.665   0.849
   52BMIM     C  735   0.902   0.631   0.824
   52BMIM     N  736   0.916   0.538   0.711
   52BMIM     C  737   0.922   0.399   0.719
   52BMIM     C  738   0.934   0.352   0.592
   52BMIM     N  739   0.934   0.462   0.508
   52BMIM     C  740   0.944   0.460   0.363
   52BMIM     C  741   0.923   0.575   0.582
   52BMIM     H  742   0.759   0.943   0.868
   52BMIM     H  743   0.769   0.953   1.044
   52BMIM     H  744   0.905   0.887   0.952
   52BMIM     H  745   0.776   0.704   1.061
   52BMIM     H  746   0.627   0.764   0.988
   52BMIM     H  747   0.699   0.572   0.862
   52BMIM     H  748   0.713   0.714   0.760
   52BMIM     H  749   0.948   0.585   0.912
   52BMIM     H  750   0.961   0.720   0.799
   52BMIM     H  751   0.918   0.352   0.816
   52BMIM     H  752   0.942   0.254   0.549
   52BMIM     H  753   1.037   0.408   0.335
   52BMIM     H  754   0.858   0.406   0.323
   52BMIM     H  755   0.945   0.561   0.324
   52BMIM     H  756   0.920   0.676   0.544
   53BMIM     C  757   1.270   0.299   0.903
   53BMIM     C  758   1.202   0.424   0.956
   53BMIM     C  759   1.268   0.553   0.911
   53BMIM     C  760   1.261   0.576   0.760
   53BMIM     N  761   1.317   0.707   0.725
   53BMIM     C  762   1.246   0.826   0.710
   53BMIM     C  763   1.337   0.922   0.677
   53BMIM     N  764   1.461   0.861   0.673
   53BMIM     C  765   1.587   0.926   0.642
   53BMIM     C  766   1.448   0.730   0.702
   53BMIM     H  767   1.376   0.298   0.930
   53BMIM     H  768   1.224   0.210   0.946
   53BMIM     H  769   1.263   0.291   0.794
   53BMIM     H  770   1.096   0.423   0.924
   53BMIM     H  771   1.202   0.420   1.065
   53BMIM     H  772   1.220   0.637   0.963
   53BMIM     H  773   1.373   0.555   0.944
   53BMIM     H  774   1.157   0.573   0.725
   53BMIM     H  775   1.317   0.500   0.705
   53BMIM     H  776   1.140   0.825   0.725
   53BMIM     H  777   1.330   1.027   0.656
   53BMIM     H  778   1.580   0.973   0.543
   53BMIM     H  779   1.607   1.003   0.717
   53BMIM     H  780   1.668   0.853   0.642
   53BMIM     H  781   1.527   0.657   0.706
   54BMIM     C  782   1.747   0.882   1.039
   54BMIM     C  783   1.891   0.842   1.012
   54BMIM     C  784   1.934   0.715   1.084
   54BMIM     C  785   1.859   0.590   1.035
   54BMIM     N  786   1.911   0.470   1.100
   54BMIM     C  787   2.011   0.386   1.050
   54BMIM     C  788   2.028   0.287   1.142
   54BMIM     N  789   1.941   0.312   1.246
   54BMIM     C  790   1.926   0.231   1.367
   54BMIM     C  791   1.870   0.423   1.219
   54BMIM     H  792   1.728   0.891   1.146
   54BMIM     H  793   1.725   0.978   0.992
   54BMIM     H  794   1.676   0.808   0.997
   54BMIM     H  795   1.906   0.831   0.903
   54BMIM     H  796   1.956   0.924   1.045
   54BMIM     H  797   2.041   0.700   1.068
   54BMIM     H  798   1.920   0.726   1.192
   54BMIM     H  799   1.869   0.578   0.927
   54BMIM     H  800   1.752   0.596   1.058
   54BMIM     H  801   2.054   0.408   0.954
   54BMIM     H  802   2.093   0.201   1.147
   54BMIM     H  803   1.900   0.129   1.338
   54BMIM     H  804   2.020   0.232   1.421
   54BMIM     H  805   1.847   0.273   1.429
   54BMIM     H  806   1.794   0.468   1.283
   55BMIM     C  807   1.364   2.042   1.141
   55BMIM     C  808   1.269   2.154   1.182
   55BMIM     C  809   1.221   2.239   1.065
   55BMIM     C  810   1.135   2.161   0.965
   55BMIM     N  811   1.083   2.250   0.860
   55BMIM     C  812   0.960   2.315   0.861
   55BMIM     C  813   0.953   2.386   0.746
   55BMIM     N  814   1.071   2.365   0.677
   55BMIM     C  815   1.107   2.423   0.548
   55BMIM     C  816   1.149   2.282   0.748
   55BMIM     H  817   1.449   2.082   1.086
   55BMIM     H  818   1.402   1.991   1.230
   55BMIM     H  819   1.314   1.967   1.078
   55BMIM     H  820   1.183   2.110   1.235
   55BMIM     H  821   1.320   2.219   1.253
   55BMIM     H  822   1.163   2.323   1.104
   55BMIM     H  823   1.307   2.283   1.012
   55BMIM     H  824   1.050   2.113   1.015
   55BMIM     H  825   1.193   2.082   0.915
   55BMIM     H  826   0.894   2.299   0.944
   55BMIM     H  827   0.878   2.451   0.702
   55BMIM     H  828   1.031   2.395   0.474
   55BMIM     H  829   1.110   2.531   0.558
   55BMIM     H  830   1.204   2.386   0.517
   55BMIM     H  831   1.248   2.247   0.719
   56BMIM     C  832   1.817   0.578   2.013
   56BMIM     C  833   1.806   0.710   2.088
   56BMIM     C  834   1.662   0.756   2.110
   56BMIM     C  835   1.582   0.663   2.201
   56BMIM     N  836   1.449   0.718   2.227
   56BMIM     C  837   1.412   0.797   2.335
   56BMIM     C  838   1.279   0.826   2.320
   56BMIM     N  839   1.238   0.764   2.203
   56BMIM     C  840   1.104   0.768   2.147
   56BMIM     C  841   1.342   0.699   2.147
   56BMIM     H  842   1.764   0.583   1.918
   56BMIM     H  843   1.921   0.555   1.992
   56BMIM     H  844   1.775   0.495   2.071
   56BMIM     H  845   1.858   0.701   2.185
   56BMIM     H  846   1.859   0.787   2.031
   56BMIM     H  847   1.664   0.856   2.154
   56BMIM     H  848   1.611   0.766   2.013
   56BMIM     H  849   1.633   0.649   2.297
   56BMIM     H  850   1.569   0.564   2.156
   56BMIM     H  851   1.486   0.822   2.409
   56BMIM     H  852   1.208   0.882   2.377
   56BMIM     H  853   1.033   0.729   2.220
   56BMIM     H  854   1.079   0.872   2.123
   56BMIM     H  855   1.099   0.709   2.056
   56BMIM     H  856   1.340   0.642   2.055
   57BMIM     C  857   0.685   1.862   1.461
   57BMIM     C  858   0.782   1.876   1.344
   57BMIM     C  859   0.893   1.977   1.369
   57BMIM     C  860   0.988   1.935   1.482
   57BMIM     N  861   1.099   2.030   1.495
   57BMIM     C  862   1.224   2.020   1.434
   57BMIM     C  863   1.296   2.129   1.472
   57BMIM     N  864   1.214   2.204   1.555
   57BMIM     C  865   1.249   2.331   1.618
   57BMIM     C  866   1.095   2.143   1.567
   57BMIM     H  867   0.643   1.958   1.489
   57BMIM     H  868   0.603   1.795   1.434
   57BMIM     H  869   0.735   1.819   1.549
   57BMIM     H  870   0.825   1.777   1.321
   57BMIM     H  871   0.726   1.908   1.256
   57BMIM     H  872   0.951   1.989   1.277
   57BMIM     H  873   0.851   2.075   1.392
   57BMIM     H  874   1.030   1.836   1.464
   57BMIM     H  875   0.937   1.932   1.579
   57BMIM     H  876   1.245   1.934   1.372
   57BMIM     H  877   1.395   2.164   1.452
   57BMIM     H  878   1.338   2.315   1.681
   57BMIM     H  879   1.271   2.404   1.541
   57BMIM     H  880   1.167   2.366   1.680
   57BMIM     H  881   1.010   2.179   1.625
   58BMIM     C  882   1.842   1.236   0.610
   58BMIM     C  883   1.940   1.232   0.493
   58BMIM     C  884   2.086   1.220   0.536
   58BMIM     C  885   2.117   1.088   0.607
   58BMIM     N  886   2.261   1.078   0.636
   58BMIM     C  887   2.357   1.017   0.556
   58BMIM     C  888   2.476   1.030   0.621
   58BMIM     N  889   2.451   1.099   0.738
   58BMIM     C  890   2.550   1.137   0.838
   58BMIM     C  891   2.320   1.128   0.746
   58BMIM     H  892   1.868   1.316   0.679
   58BMIM     H  893   1.741   1.254   0.573
   58BMIM     H  894   1.842   1.141   0.666
   58BMIM     H  895   1.913   1.148   0.427
   58BMIM     H  896   1.928   1.323   0.435
   58BMIM     H  897   2.149   1.229   0.447
   58BMIM     H  898   2.113   1.304   0.602
   58BMIM     H  899   2.089   1.002   0.545
   58BMIM     H  900   2.063   1.079   0.702
   58BMIM     H  901   2.326   0.971   0.464
   58BMIM     H  902   2.577   1.000   0.599
   58BMIM     H  903   2.600   1.047   0.874
   58BMIM     H  904   2.623   1.204   0.792
   58BMIM     H  905   2.501   1.188   0.921
   58BMIM     H  906   2.271   1.181   0.827
   59BMIM     C  907   2.520   1.306   2.002
   59BMIM     C  908   2.480   1.236   1.873
   59BMIM     C  909   2.337   1.183   1.875
   59BMIM     C  910   2.232   1.294   1.883
   59BMIM     N  911   2.097   1.238   1.873
   59BMIM     C  912   2.021   1.224   1.757
   59BMIM     C  913   1.903   1.169   1.794
   59BMIM     N  914   1.908   1.148   1.930
   59BMIM     C  915   1.802   1.090   2.012
   59BMIM     C  916   2.026   1.191   1.978
   59BMIM     H  917   2.505   1.241   2.088
   59BMIM     H  918   2.626   1.333   1.998
   59BMIM     H  919   2.463   1.398   2.018
   59BMIM     H  920   2.494   1.305   1.788
   59BMIM     H  921   2.548   1.151   1.857
   59BMIM     H  922   2.320   1.125   1.783
   59BMIM     H  923   2.323   1.113   1.958
   59BMIM     H  924   2.245   1.367   1.802
   59BMIM     H  925   2.239   1.349   1.978
   59BMIM     H  926   2.063   1.258   1.664
   59BMIM     H  927   1.814   1.139   1.740
   59BMIM     H  928   1.711   1.149   2.000
   59BMIM     H  929   1.785   0.988   1.979
   59BMIM     H  930   1.832   1.089   2.117
   59BMIM     H  931   2.059   1.188   2.081
   60BMIM     C  932   0.756   1.271   1.802
   60BMIM     C  933   0.762   1.311   1.656
   60BMIM     C  934   0.857   1.427   1.628
   60BMIM     C  935   1.004   1.392   1.655
   60BMIM     N  936   1.092   1.503   1.617
   60BMIM     C  937   1.155   1.519   1.494
   60BMIM     C  938   1.226   1.635   1.501
   60BMIM     N  939   1.204   1.688   1.627
   60BMIM     C  940   1.260   1.813   1.678
   60BMIM     C  941   1.122   1.607   1.696
   60BMIM     H  942   0.731   1.357   1.866
   60BMIM     H  943   0.680   1.195   1.817
   60BMIM     H  944   0.852   1.230   1.837
   60BMIM     H  945   0.790   1.223   1.595
   60BMIM     H  946   0.662   1.341   1.624
   60BMIM     H  947   0.847   1.456   1.523
   60BMIM     H  948   0.829   1.515   1.687
   60BMIM     H  949   1.034   1.303   1.599
   60BMIM     H  950   1.021   1.372   1.762
   60BMIM     H  951   1.142   1.444   1.418
   60BMIM     H  952   1.290   1.688   1.433
   60BMIM     H  953   1.369   1.807   1.673
   60BMIM     H  954   1.224   1.895   1.616
   60BMIM     H  955   1.228   1.828   1.781
   60BMIM     H  956   1.087   1.623   1.797
   61BMIM     C  957   1.804   0.381   0.232
   61BMIM     C  958   1.954   0.389   0.211
   61BMIM     C  959   2.029   0.449   0.330
   61BMIM     C  960   2.020   0.363   0.456
   61BMIM     N  961   2.102   0.419   0.563
   61BMIM     C  962   2.235   0.386   0.592
   61BMIM     C  963   2.271   0.462   0.699
   61BMIM     N  964   2.163   0.541   0.733
   61BMIM     C  965   2.157   0.638   0.841
   61BMIM     C  966   2.060   0.514   0.650
   61BMIM     H  967   1.762   0.478   0.257
   61BMIM     H  968   1.755   0.346   0.140
   61BMIM     H  969   1.778   0.310   0.312
   61BMIM     H  970   1.993   0.289   0.189
   61BMIM     H  971   1.973   0.452   0.123
   61BMIM     H  972   2.134   0.462   0.302
   61BMIM     H  973   1.990   0.550   0.352
   61BMIM     H  974   2.055   0.261   0.436
   61BMIM     H  975   1.917   0.355   0.493
   61BMIM     H  976   2.284   0.312   0.533
   61BMIM     H  977   2.362   0.472   0.756
   61BMIM     H  978   2.180   0.588   0.936
   61BMIM     H  979   2.231   0.716   0.822
   61BMIM     H  980   2.058   0.683   0.846
   61BMIM     H  981   1.962   0.560   0.651
   62BMIM     C  982   0.395   1.150   2.138
   62BMIM     C  983   0.265   1.098   2.080
   62BMIM     C  984   0.269   1.077   1.929
   62BMIM     C  985   0.367   0.968   1.886
   62BMIM     N  986   0.359   0.946   1.741
   62BMIM     C  987   0.280   0.851   1.677
   62BMIM     C  988   0.303   0.864   1.543
   62BMIM     N  989   0.394   0.967   1.528
   62BMIM     C  990   0.447   1.017   1.402
   62BMIM     C  991   0.427   1.016   1.649
   62BMIM     H  992   0.426   1.242   2.089
   62BMIM     H  993   0.383   1.171   2.245
   62BMIM     H  994   0.476   1.076   2.128
   62BMIM     H  995   0.238   1.003   2.130
   62BMIM     H  996   0.185   1.170   2.103
   62BMIM     H  997   0.168   1.051   1.895
   62BMIM     H  998   0.294   1.172   1.879
   62BMIM     H  999   0.345   0.873   1.937
   62BMIM     H 1000   0.470   0.995   1.909
   62BMIM     H 1001   0.218   0.785   1.736
   62BMIM     H 1002   0.266   0.815   1.455
   62BMIM     H 1003   0.496   0.934   1.349
   62BMIM     H 1004   0.365   1.056   1.342
   62BMIM     H 1005   0.520   1.096   1.421
   62BMIM     H 1006   0.497   1.097   1.669
   63BMIM     C 1007   1.888   1.951   1.520
   63BMIM     C 1008   2.008   2.045   1.522
   63BMIM     C 1009   2.142   1.973   1.517
   63BMIM     C 1010   2.165   1.897   1.387
   63BMIM     N 1011   2.300   1.839   1.384
   63BMIM     C 1012   2.414   1.897   1.329
   63BMIM     C 1013   2.516   1.810   1.348
   63BMIM     N 1014   2.464   1.700   1.414
   63BMIM     C 1015   2.538   1.582   1.456
   63BMIM     C 1016   2.332   1.719   1.436
   63BMIM     H 1017   1.894   1.878   1.601
   63BMIM     H 1018   1.796   2.008   1.533
   63BMIM     H 1019   1.881   1.896   1.425
   63BMIM     H 1020   2.000   2.115   1.437
   63BMIM     H 1021   2.004   2.105   1.614
   63BMIM     H 1022   2.222   2.047   1.531
   63BMIM     H 1023   2.150   1.903   1.602
   63BMIM     H 1024   2.155   1.964   1.300
   63BMIM     H 1025   2.094   1.815   1.374
   63BMIM     H 1026   2.406   1.994   1.282
   63BMIM     H 1027   2.621   1.810   1.323
   63BMIM     H 1028   2.584   1.536   1.368
   63BMIM     H 1029   2.615   1.612   1.527
   63BMIM     H 1030   2.471   1.510   1.503
   63BMIM     H 1031   2.265   1.651   1.486
   64BMIM     C 1032   1.201   1.860   0.461
   64BMIM     C 1033   1.211   1.943   0.588
   64BMIM     C 1034   1.079   2.003   0.633
   64BMIM     C 1035   0.975   1.899   0.674
   64BMIM     N 1036   0.854   1.963   0.725
   64BMIM     C 1037   0.826   1.991   0.859
   64BMIM     C 1038   0.703   2.051   0.861
   64BMIM     N 1039   0.659   2.059   0.731
   64BMIM     C 1040   0.533   2.116   0.686
   64BMIM     C 1041   0.751   2.005   0.649
   64BMIM     H 1042   1.157   1.917   0.380
   64BMIM     H 1043   1.300   1.827   0.430
   64BMIM     H 1044   1.139   1.770   0.477
   64BMIM     H 1045   1.253   1.880   0.669
   64BMIM     H 1046   1.282   2.024   0.571
   64BMIM     H 1047   1.097   2.070   0.717
   64BMIM     H 1048   1.037   2.066   0.553
   64BMIM     H 1049   1.015   1.832   0.752
   64BMIM     H 1050   0.946   1.836   0.589
   64BMIM     H 1051   0.898   1.963   0.934
   64BMIM     H 1052   0.641   2.089   0.940
   64BMIM     H 1053   0.450   2.064   0.736
   64BMIM     H 1054   0.531   2.222   0.713
   64BMIM     H 1055   0.523   2.106   0.578
   64BMIM     H 1056   0.745   1.997   0.541
   65BMIM     C 1057   0.307   2.326   1.020
   65BMIM     C 1058   0.211   2.388   1.121
   65BMIM     C 1059   0.201   2.309   1.251
   65BMIM     C 1060   0.332   2.306   1.330
   65BMIM     N 1061   0.313   2.237   1.459
   65BMIM     C 1062   0.282   2.298   1.580
   65BMIM     C 1063   0.274   2.198   1.673
   65BMIM     N 1064   0.299   2.079   1.607
   65BMIM     C 1065   0.300   1.946   1.666
   65BMIM     C 1066   0.323   2.104   1.477
   65BMIM     H 1067   0.280   2.223   0.999
   65BMIM     H 1068   0.303   2.382   0.926
   65BMIM     H 1069   0.411   2.328   1.055
   65BMIM     H 1070   0.243   2.491   1.142
   65BMIM     H 1071   0.112   2.393   1.076
   65BMIM     H 1072   0.123   2.353   1.313
   65BMIM     H 1073   0.169   2.206   1.230
   65BMIM     H 1074   0.368   2.407   1.350
   65BMIM     H 1075   0.411   2.253   1.276
   65BMIM     H 1076   0.271   2.405   1.584
   65BMIM     H 1077   0.253   2.195   1.778
   65BMIM     H 1078   0.374   1.944   1.748
   65BMIM     H 1079   0.201   1.925   1.706
   65BMIM     H 1080   0.326   1.872   1.591
   65BMIM     H 1081   0.345   2.031   1.400
   66BMIM     C 1082   2.494   0.318   1.261
   66BMIM     C 1083   2.364   0.362   1.195
   66BMIM     C 1084   2.259   0.409   1.294
   66BMIM     C 1085   2.299   0.536   1.370
   66BMIM     N 1086   2.189   0.582   1.455
   66BMIM     C 1087   2.092   0.676   1.422
   66BMIM     C 1088   2.011   0.689   1.530
   66BMIM     N 1089   2.058   0.603   1.627
   66BMIM     C 1090   2.001   0.583   1.760
   66BMIM     C 1091   2.167   0.538   1.581
   66BMIM     H 1092   2.476   0.240   1.336
   66BMIM     H 1093   2.562   0.277   1.186
   66BMIM     H 1094   2.545   0.402   1.310
   66BMIM     H 1095   2.386   0.442   1.122
   66BMIM     H 1096   2.324   0.278   1.138
   66BMIM     H 1097   2.165   0.428   1.239
   66BMIM     H 1098   2.236   0.329   1.366
   66BMIM     H 1099   2.325   0.616   1.300
   66BMIM     H 1100   2.386   0.518   1.434
   66BMIM     H 1101   2.096   0.721   1.324
   66BMIM     H 1102   1.923   0.748   1.551
   66BMIM     H 1103   1.999   0.679   1.812
   66BMIM     H 1104   1.899   0.545   1.749
   66BMIM     H 1105   2.061   0.512   1.816
   66BMIM     H 1106   2.225   0.465   1.634
   67BMIM     C 1107   0.870   0.935   0.591
   67BMIM     C 1108   0.739   0.979   0.527
   67BMIM     C 1109   0.635   1.027   0.628
   67BMIM     C 1110   0.677   1.154   0.703
   67BMIM     N 1111   0.570   1.201   0.790
   67BMIM     C 1112   0.472   1.295   0.758
   67BMIM     C 1113   0.393   1.308   0.868
   67BMIM     N 1114   0.442   1.223   0.965
   67BMIM     C 1115   0.388   1.204   1.099
   67BMIM     C 1116   0.550   1.158   0.916
   67BMIM     H 1117   0.853   0.858   0.666
   67BMIM     H 1118   0.936   0.893   0.514
   67BMIM     H 1119   0.922   1.019   0.638
   67BMIM     H 1120   0.759   1.059   0.454
   67BMIM     H 1121   0.697   0.895   0.472
   67BMIM     H 1122   0.541   1.046   0.576
   67BMIM     H 1123   0.614   0.947   0.701
   67BMIM     H 1124   0.702   1.234   0.632
   67BMIM     H 1125   0.766   1.136   0.765
   67BMIM     H 1126   0.473   1.340   0.661
   67BMIM     H 1127   0.306   1.368   0.891
   67BMIM     H 1128   0.387   1.300   1.151
   67BMIM     H 1129   0.286   1.165   1.090
   67BMIM     H 1130   0.449   1.133   1.154
   67BMIM     H 1131   0.609   1.084   0.969
   68BMIM     C 1132   0.333   1.578   1.799
   68BMIM     C 1133   0.479   1.547   1.771
   68BMIM     C 1134   0.572   1.584   1.886
   68BMIM     C 1135   0.548   1.501   2.012
   68BMIM     N 1136   0.647   1.533   2.115
   68BMIM     C 1137   0.767   1.466   2.138
   68BMIM     C 1138   0.828   1.528   2.242
   68BMIM     N 1139   0.746   1.632   2.281
   68BMIM     C 1140   0.771   1.726   2.390
   68BMIM     C 1141   0.636   1.634   2.204
   68BMIM     H 1142   0.319   1.683   1.827
   68BMIM     H 1143   0.273   1.559   1.711
   68BMIM     H 1144   0.293   1.516   1.881
   68BMIM     H 1145   0.489   1.440   1.747
   68BMIM     H 1146   0.510   1.604   1.682
   68BMIM     H 1147   0.676   1.569   1.853
   68BMIM     H 1148   0.563   1.691   1.910
   68BMIM     H 1149   0.554   1.394   1.990
   68BMIM     H 1150   0.449   1.520   2.055
   68BMIM     H 1151   0.792   1.381   2.076
   68BMIM     H 1152   0.921   1.513   2.295
   68BMIM     H 1153   0.785   1.670   2.483
   68BMIM     H 1154   0.862   1.782   2.367
   68BMIM     H 1155   0.688   1.794   2.400
   68BMIM     H 1156   0.554   1.704   2.210
   2.72000   2.72000   2.72000
