A Gromacs structure file written by ASE 
   10
    1EC       O    1   0.269  -0.003   0.005  0.0000  0.0000  0.0000
    1EC       C    2   0.147  -0.002   0.003  0.0000  0.0000  0.0000
    1EC       O    3   0.068  -0.112   0.018  0.0000  0.0000  0.0000
    1EC       C    4  -0.063  -0.073  -0.015  0.0000  0.0000  0.0000
    1EC       C    5  -0.062   0.074   0.013  0.0000  0.0000  0.0000
    1EC       O    6   0.072   0.111  -0.016  0.0000  0.0000  0.0000
    1EC       H    7  -0.080  -0.095  -0.121  0.0000  0.0000  0.0000
    1EC       H    8  -0.137  -0.126   0.045  0.0000  0.0000  0.0000
    1EC       H    9  -0.083   0.096   0.118  0.0000  0.0000  0.0000
    1EC       H   10  -0.132   0.130  -0.050  0.0000  0.0000  0.0000

