; ITP file created by ByteFF-ML, 2026-09-15 16:43:19.718906

[ moleculetype ]
;name             nrexcl
 EC                    3

[ atoms ]
;       nr            type      resi   res      atom      cgnr      charge          mass ; qtot
         1            o0bf         1   UNL        o0         1    -0.57356       15.9990 ; qtot   -0.574
         2            c1bf         1   UNL        c1         2     0.88286       12.0110 ; qtot    0.309
         3            o2bf         1   UNL        o2         3    -0.39440       15.9990 ; qtot   -0.085
         4            c3bf         1   UNL        c3         4     0.06723       12.0110 ; qtot   -0.018
         5            c4bf         1   UNL        c4         5     0.06723       12.0110 ; qtot    0.049
         6            o5bf         1   UNL        o5         6    -0.39440       15.9990 ; qtot   -0.345
         7            h6bf         1   UNL        h6         7     0.08626        1.0080 ; qtot   -0.259
         8            h7bf         1   UNL        h7         8     0.08626        1.0080 ; qtot   -0.173
         9            h8bf         1   UNL        h8         9     0.08626        1.0080 ; qtot   -0.086
        10            h9bf         1   UNL        h9        10     0.08626        1.0080 ; qtot    0.000

[ bonds ]
;       ai        aj funct               r               k
         1         2     1        0.119889   747916.967187
         2         3     1        0.136185   209926.875513
         2         6     1        0.136185   209926.875513
         3         4     1        0.144261   169588.151099
         4         5     1        0.152921   173060.393555
         4         7     1        0.109574   308876.751758
         4         8     1        0.109574   308876.751758
         5         6     1        0.144261   169588.151099
         5         9     1        0.109574   308876.751758
         5        10     1        0.109574   308876.751758

[ angles ]
;       ai        aj        ak funct           theta             cth
         1         2         3     1      125.277664      537.177054
         1         2         6     1      125.277664      537.177054
         2         3         4     1      109.314583      539.843703
         2         6         5     1      109.314583      539.843703
         3         2         6     1      107.517967      333.192849
         3         4         5     1      102.734108      376.576471
         3         4         7     1      108.414062      485.553404
         3         4         8     1      108.414062      485.553404
         4         5         6     1      102.734108      376.576471
         4         5         9     1      113.141434      427.891952
         4         5        10     1      113.141434      427.891952
         5         4         7     1      113.141434      427.891952
         5         4         8     1      113.141434      427.891952
         6         5         9     1      108.414055      485.553372
         6         5        10     1      108.414055      485.553372
         7         4         8     1      109.787567      334.586792
         9         5        10     1      109.787567      334.586792

[ dihedrals ] ; propers for gromacs 4.5 or higher, use funct 9
;       ai        aj        ak        al funct           phase               k        pn
         1         2         3         4     9        0.000000       10.574503         1
         1         2         3         4     9      180.000000        7.638781         2
         1         2         3         4     9        0.000000        1.362793         3
         1         2         3         4     9      180.000000       -0.884414         4
         1         2         6         5     9        0.000000       10.574503         1
         1         2         6         5     9      180.000000        7.638781         2
         1         2         6         5     9        0.000000        1.362793         3
         1         2         6         5     9      180.000000       -0.884414         4
         2         3         4         5     9        0.000000      -16.055434         1
         2         3         4         5     9      180.000000       12.455023         2
         2         3         4         5     9        0.000000       -0.194900         3
         2         3         4         5     9      180.000000       -1.607754         4
         2         3         4         7     9        0.000000        3.898708         1
         2         3         4         7     9      180.000000        3.967365         2
         2         3         4         7     9        0.000000        0.454749         3
         2         3         4         7     9      180.000000       -0.011178         4
         2         3         4         8     9        0.000000        3.898708         1
         2         3         4         8     9      180.000000        3.967365         2
         2         3         4         8     9        0.000000        0.454749         3
         2         3         4         8     9      180.000000       -0.011178         4
         2         6         5         4     9        0.000000      -16.055434         1
         2         6         5         4     9      180.000000       12.455023         2
         2         6         5         4     9        0.000000       -0.194900         3
         2         6         5         4     9      180.000000       -1.607754         4
         2         6         5         9     9        0.000000        3.898705         1
         2         6         5         9     9      180.000000        3.967363         2
         2         6         5         9     9        0.000000        0.454749         3
         2         6         5         9     9      180.000000       -0.011178         4
         2         6         5        10     9        0.000000        3.898705         1
         2         6         5        10     9      180.000000        3.967363         2
         2         6         5        10     9        0.000000        0.454749         3
         2         6         5        10     9      180.000000       -0.011178         4
         3         2         6         5     9        0.000000       -9.040062         1
         3         2         6         5     9      180.000000       17.950465         2
         3         2         6         5     9        0.000000        0.987844         3
         3         2         6         5     9      180.000000       -2.866939         4
         3         4         5         6     9        0.000000      -10.483033         1
         3         4         5         6     9      180.000000       13.904884         2
         3         4         5         6     9        0.000000        0.972904         3
         3         4         5         6     9      180.000000       -2.307429         4
         3         4         5         9     9        0.000000       -2.358294         1
         3         4         5         9     9      180.000000        7.091954         2
         3         4         5         9     9        0.000000        0.722837         3
         3         4         5         9     9      180.000000       -0.159845         4
         3         4         5        10     9        0.000000       -2.358294         1
         3         4         5        10     9      180.000000        7.091954         2
         3         4         5        10     9        0.000000        0.722837         3
         3         4         5        10     9      180.000000       -0.159846         4
         4         3         2         6     9        0.000000       -9.040050         1
         4         3         2         6     9      180.000000       17.950457         2
         4         3         2         6     9        0.000000        0.987844         3
         4         3         2         6     9      180.000000       -2.866937         4
         6         5         4         7     9        0.000000       -2.358297         1
         6         5         4         7     9      180.000000        7.091956         2
         6         5         4         7     9        0.000000        0.722837         3
         6         5         4         7     9      180.000000       -0.159845         4
         6         5         4         8     9        0.000000       -2.358297         1
         6         5         4         8     9      180.000000        7.091956         2
         6         5         4         8     9        0.000000        0.722837         3
         6         5         4         8     9      180.000000       -0.159845         4
         7         4         5         9     9        0.000000       -6.124345         1
         7         4         5         9     9      180.000000        3.674168         2
         7         4         5         9     9        0.000000        0.676467         3
         7         4         5         9     9      180.000000        0.020087         4
         7         4         5        10     9        0.000000       -6.124345         1
         7         4         5        10     9      180.000000        3.674168         2
         7         4         5        10     9        0.000000        0.676467         3
         7         4         5        10     9      180.000000        0.020087         4
         8         4         5         9     9        0.000000       -6.124345         1
         8         4         5         9     9      180.000000        3.674167         2
         8         4         5         9     9        0.000000        0.676468         3
         8         4         5         9     9      180.000000        0.020086         4
         8         4         5        10     9        0.000000       -6.124345         1
         8         4         5        10     9      180.000000        3.674167         2
         8         4         5        10     9        0.000000        0.676468         3
         8         4         5        10     9      180.000000        0.020086         4

[ dihedrals ] ; impropers
;       ai        aj        ak        al funct           phase               k        pn
         2         1         3         6     4      180.000000       54.195226         2
         2         3         6         1     4      180.000000       54.195226         2
         2         6         1         3     4      180.000000       54.195226         2

[ pairs ]
;       ai        aj funct
         1         4     1
         1         5     1
         2         7     1
         2         8     1
         2         9     1
         2        10     1
         3         9     1
         3        10     1
         6         7     1
         6         8     1
         7         9     1
         7        10     1
         8         9     1
         8        10     1
