; ITP file created by ByteFF-ML, 2026-09-15 16:43:19.888291

[ moleculetype ]
;name             nrexcl
 FEC                   3

[ atoms ]
;       nr            type      resi   res      atom      cgnr      charge          mass ; qtot
         1            o0bf         1   UNL        o0         1    -0.53876       15.9990 ; qtot   -0.539
         2            c1bf         1   UNL        c1         2     0.86560       12.0110 ; qtot    0.327
         3            o2bf         1   UNL        o2         3    -0.34803       15.9990 ; qtot   -0.021
         4            c3bf         1   UNL        c3         4    -0.05630       12.0110 ; qtot   -0.077
         5            c4bf         1   UNL        c4         5     0.40749       12.0110 ; qtot    0.330
         6            f5bf         1   UNL        f5         6    -0.23554       18.9980 ; qtot    0.094
         7            o6bf         1   UNL        o6         7    -0.41014       15.9990 ; qtot   -0.316
         8            h7bf         1   UNL        h7         8     0.12751        1.0080 ; qtot   -0.188
         9            h8bf         1   UNL        h8         9     0.12751        1.0080 ; qtot   -0.061
        10            h9bf         1   UNL        h9        10     0.06066        1.0080 ; qtot    0.000

[ bonds ]
;       ai        aj funct               r               k
         1         2     1        0.119612   760363.294629
         2         3     1        0.136269   212325.193140
         2         7     1        0.136225   194945.811206
         3         4     1        0.143359   181378.276978
         4         5     1        0.153247   176979.995093
         4         8     1        0.109230   313682.069629
         4         9     1        0.109230   313682.069629
         5         6     1        0.136545   236184.910254
         5         7     1        0.143447   162474.776514
         5        10     1        0.110167   312478.122607

[ angles ]
;       ai        aj        ak funct           theta             cth
         1         2         3     1      125.484200      535.673748
         1         2         7     1      125.342293      540.617413
         2         3         4     1      108.902969      548.421554
         2         7         5     1      108.288620      706.752015
         3         2         7     1      107.634308      318.700444
         3         4         5     1      101.234070      349.808346
         3         4         8     1      109.250664      480.614336
         3         4         9     1      109.250664      480.614336
         4         5         6     1      112.880768      526.138607
         4         5         7     1      104.453163      289.636340
         4         5        10     1      114.590767      377.679355
         5         4         8     1      112.406334      445.292428
         5         4         9     1      112.406334      445.292428
         6         5         7     1      107.591774      812.824868
         6         5        10     1      108.180389      470.672005
         7         5        10     1      109.949013      424.203212
         8         4         9     1      110.342682      334.548838

[ dihedrals ] ; propers for gromacs 4.5 or higher, use funct 9
;       ai        aj        ak        al funct           phase               k        pn
         1         2         3         4     9        0.000000       11.996108         1
         1         2         3         4     9      180.000000        8.228967         2
         1         2         3         4     9        0.000000        1.315524         3
         1         2         3         4     9      180.000000       -0.986521         4
         1         2         7         5     9        0.000000        9.393418         1
         1         2         7         5     9      180.000000        6.515267         2
         1         2         7         5     9        0.000000        0.984057         3
         1         2         7         5     9      180.000000       -0.506078         4
         2         3         4         5     9        0.000000      -11.727126         1
         2         3         4         5     9      180.000000       12.835833         2
         2         3         4         5     9        0.000000       -0.659702         3
         2         3         4         5     9      180.000000       -1.631486         4
         2         3         4         8     9        0.000000        5.063502         1
         2         3         4         8     9      180.000000        3.961921         2
         2         3         4         8     9        0.000000        0.471700         3
         2         3         4         8     9      180.000000        0.050908         4
         2         3         4         9     9        0.000000        5.063502         1
         2         3         4         9     9      180.000000        3.961921         2
         2         3         4         9     9        0.000000        0.471700         3
         2         3         4         9     9      180.000000        0.050908         4
         2         7         5         4     9        0.000000      -12.988843         1
         2         7         5         4     9      180.000000       10.174780         2
         2         7         5         4     9        0.000000       -0.351044         3
         2         7         5         4     9      180.000000       -1.167891         4
         2         7         5         6     9        0.000000        4.224960         1
         2         7         5         6     9      180.000000       -1.803778         2
         2         7         5         6     9        0.000000        0.745312         3
         2         7         5         6     9      180.000000        0.065174         4
         2         7         5        10     9        0.000000        8.254307         1
         2         7         5        10     9      180.000000        1.953674         2
         2         7         5        10     9        0.000000        0.597493         3
         2         7         5        10     9      180.000000        0.048356         4
         3         2         7         5     9        0.000000      -11.669602         1
         3         2         7         5     9      180.000000       15.644429         2
         3         2         7         5     9        0.000000        0.522866         3
         3         2         7         5     9      180.000000       -2.046497         4
         3         4         5         6     9        0.000000        2.005572         1
         3         4         5         6     9      180.000000        5.242600         2
         3         4         5         6     9        0.000000        0.916282         3
         3         4         5         6     9      180.000000        0.385618         4
         3         4         5         7     9        0.000000       -6.436984         1
         3         4         5         7     9      180.000000       14.998133         2
         3         4         5         7     9        0.000000        0.747365         3
         3         4         5         7     9      180.000000       -1.791398         4
         3         4         5        10     9        0.000000       -0.024048         1
         3         4         5        10     9      180.000000        7.229564         2
         3         4         5        10     9        0.000000        0.770530         3
         3         4         5        10     9      180.000000        0.116815         4
         4         3         2         7     9        0.000000      -10.284521         1
         4         3         2         7     9      180.000000       19.004837         2
         4         3         2         7     9        0.000000        1.035817         3
         4         3         2         7     9      180.000000       -3.240378         4
         6         5         4         8     9        0.000000       -3.956334         1
         6         5         4         8     9      180.000000        3.042761         2
         6         5         4         8     9        0.000000        0.602388         3
         6         5         4         8     9      180.000000        0.262883         4
         6         5         4         9     9        0.000000       -3.956334         1
         6         5         4         9     9      180.000000        3.042761         2
         6         5         4         9     9        0.000000        0.602388         3
         6         5         4         9     9      180.000000        0.262883         4
         7         5         4         8     9        0.000000       -1.850174         1
         7         5         4         8     9      180.000000        7.396701         2
         7         5         4         8     9        0.000000        0.544195         3
         7         5         4         8     9      180.000000       -0.035509         4
         7         5         4         9     9        0.000000       -1.850174         1
         7         5         4         9     9      180.000000        7.396701         2
         7         5         4         9     9        0.000000        0.544195         3
         7         5         4         9     9      180.000000       -0.035509         4
         8         4         5        10     9        0.000000       -3.902094         1
         8         4         5        10     9      180.000000        3.391888         2
         8         4         5        10     9        0.000000        0.621617         3
         8         4         5        10     9      180.000000        0.175056         4
         9         4         5        10     9        0.000000       -3.902094         1
         9         4         5        10     9      180.000000        3.391888         2
         9         4         5        10     9        0.000000        0.621617         3
         9         4         5        10     9      180.000000        0.175056         4

[ dihedrals ] ; impropers
;       ai        aj        ak        al funct           phase               k        pn
         2         1         3         7     4      180.000000       43.823776         2
         2         3         7         1     4      180.000000       43.823776         2
         2         7         1         3     4      180.000000       43.823776         2

[ pairs ]
;       ai        aj funct
         1         4     1
         1         5     1
         2         6     1
         2         8     1
         2         9     1
         2        10     1
         3         6     1
         3        10     1
         6         8     1
         6         9     1
         7         8     1
         7         9     1
         8        10     1
         9        10     1
