A Gromacs structure file written by ASE 
    7
    1PF6      F    1  -0.008  -0.029   0.163  0.0000  0.0000  0.0000
    1PF6      P    2  -0.008  -0.029   0.000  0.0000  0.0000  0.0000
    1PF6      F    3  -0.171  -0.029   0.000  0.0000  0.0000  0.0000
    1PF6      F    4  -0.008   0.134   0.000  0.0000  0.0000  0.0000
    1PF6      F    5  -0.008  -0.029  -0.163  0.0000  0.0000  0.0000
    1PF6      F    6   0.155  -0.029   0.000  0.0000  0.0000  0.0000
    1PF6      F    7  -0.008  -0.192   0.000  0.0000  0.0000  0.0000

