A Gromacs structure file written by ASE
 4267
    1EC       O    1   1.773   0.744   3.511
    1EC       C    2   1.713   0.850   3.510
    1EC       O    3   1.579   0.864   3.529
    1EC       C    4   1.547   0.997   3.496
    1EC       C    5   1.676   1.070   3.520
    1EC       O    6   1.773   0.971   3.489
    1EC       H    7   1.516   1.001   3.391
    1EC       H    8   1.466   1.035   3.558
    1EC       H    9   1.687   1.099   3.625
    1EC       H   10   1.688   1.158   3.456
    2EC       O   11   3.172   2.147   0.214
    2EC       C   12   3.130   2.261   0.217
    2EC       O   13   3.204   2.372   0.187
    2EC       C   14   3.127   2.484   0.225
    2EC       C   15   2.987   2.432   0.217
    2EC       O   16   3.002   2.295   0.251
    2EC       H   17   3.155   2.512   0.327
    2EC       H   18   3.143   2.568   0.158
    2EC       H   19   2.945   2.439   0.116
    2EC       H   20   2.919   2.482   0.288
    3EC       O   21   2.509   2.082   2.542
    3EC       C   22   2.540   2.038   2.432
    3EC       O   23   2.489   2.081   2.314
    3EC       C   24   2.531   1.990   2.215
    3EC       C   25   2.656   1.933   2.274
    3EC       O   26   2.631   1.937   2.413
    3EC       H   27   2.453   1.914   2.203
    3EC       H   28   2.548   2.039   2.120
    3EC       H   29   2.744   1.995   2.252
    3EC       H   30   2.676   1.831   2.241
    4EC       O   31   3.421   0.787   1.896
    4EC       C   32   3.480   0.829   1.995
    4EC       O   33   3.614   0.855   2.000
    4EC       C   34   3.646   0.877   2.135
    4EC       C   35   3.516   0.923   2.193
    4EC       O   36   3.419   0.854   2.115
    4EC       H   37   3.679   0.782   2.179
    4EC       H   38   3.725   0.951   2.146
    4EC       H   39   3.501   1.031   2.180
    4EC       H   40   3.505   0.898   2.299
    5EC       O   41   3.482   2.212   3.721
    5EC       C   42   3.365   2.213   3.689
    5EC       O   43   3.279   2.108   3.703
    5EC       C   44   3.162   2.142   3.633
    5EC       C   45   3.163   2.292   3.636
    5EC       O   46   3.302   2.322   3.634
    5EC       H   47   3.169   2.102   3.531
    5EC       H   48   3.073   2.101   3.681
    5EC       H   49   3.119   2.332   3.727
    5EC       H   50   3.113   2.336   3.549
    6EC       O   51   2.430   2.747   0.699
    6EC       C   52   2.395   2.770   0.584
    6EC       O   53   2.478   2.810   0.484
    6EC       C   54   2.396   2.849   0.376
    6EC       C   55   2.271   2.770   0.400
    6EC       O   56   2.265   2.760   0.541
    6EC       H   57   2.378   2.957   0.383
    6EC       H   58   2.442   2.826   0.280
    6EC       H   59   2.277   2.669   0.357
    6EC       H   60   2.181   2.820   0.361
    7EC       O   61   3.202   3.149   3.535
    7EC       C   62   3.136   3.065   3.594
    7EC       O   63   3.015   3.018   3.553
    7EC       C   64   2.962   2.942   3.659
    7EC       C   65   3.085   2.898   3.732
    7EC       O   66   3.175   3.006   3.711
    7EC       H   67   2.899   3.008   3.720
    7EC       H   68   2.903   2.858   3.623
    7EC       H   69   3.128   2.807   3.689
    7EC       H   70   3.068   2.883   3.839
    8EC       O   71   2.510   0.911   2.099
    8EC       C   72   2.568   1.018   2.107
    8EC       O   73   2.518   1.136   2.061
    8EC       C   74   2.624   1.229   2.066
    8EC       C   75   2.712   1.174   2.174
    8EC       O   76   2.692   1.033   2.162
    8EC       H   77   2.674   1.230   1.969
    8EC       H   78   2.588   1.329   2.090
    8EC       H   79   2.680   1.206   2.274
    8EC       H   80   2.818   1.199   2.160
    9EC       O   81   1.788   2.007   1.799
    9EC       C   82   1.832   1.974   1.908
    9EC       O   83   1.961   1.940   1.934
    9EC       C   84   1.965   1.886   2.063
    9EC       C   85   1.846   1.949   2.129
    9EC       O   86   1.755   1.966   2.022
    9EC       H   87   1.955   1.777   2.056
    9EC       H   88   2.058   1.910   2.114
    9EC       H   89   1.870   2.048   2.171
    9EC       H   90   1.803   1.887   2.208
   10EC       O   91   3.796   2.957   3.638
   10EC       C   92   3.759   3.069   3.668
   10EC       O   93   3.639   3.099   3.726
   10EC       C   94   3.625   3.239   3.722
   10EC       C   95   3.767   3.286   3.718
   10EC       O   96   3.833   3.182   3.647
   10EC       H   97   3.570   3.265   3.631
   10EC       H   98   3.572   3.276   3.809
   10EC       H   99   3.811   3.294   3.818
   10EC       H  100   3.779   3.382   3.666
   11EC       O  101   2.927   0.878   3.534
   11EC       C  102   3.034   0.820   3.523
   11EC       O  103   3.052   0.700   3.462
   11EC       C  104   3.182   0.656   3.492
   11EC       C  105   3.254   0.785   3.519
   11EC       O  106   3.152   0.868   3.573
   11EC       H  107   3.177   0.592   3.581
   11EC       H  108   3.226   0.601   3.410
   11EC       H  109   3.292   0.831   3.427
   11EC       H  110   3.337   0.774   3.590
   12EC       O  111   3.275   0.208   2.414
   12EC       C  112   3.387   0.228   2.458
   12EC       O  113   3.435   0.177   2.574
   12EC       C  114   3.557   0.243   2.601
   12EC       C  115   3.602   0.284   2.464
   12EC       O  116   3.480   0.307   2.395
   12EC       H  117   3.536   0.329   2.665
   12EC       H  118   3.628   0.177   2.650
   12EC       H  119   3.657   0.205   2.414
   12EC       H  120   3.663   0.375   2.465
   13EC       O  121   2.433   3.143   3.853
   13EC       C  122   2.343   3.199   3.792
   13EC       O  123   2.248   3.136   3.718
   13EC       C  124   2.180   3.236   3.646
   13EC       C  125   2.199   3.357   3.732
   13EC       O  126   2.326   3.335   3.791
   13EC       H  127   2.227   3.247   3.548
   13EC       H  128   2.075   3.211   3.633
   13EC       H  129   2.123   3.363   3.811
   13EC       H  130   2.198   3.450   3.675
   14EC       O  131   2.575   0.955   2.683
   14EC       C  132   2.695   0.975   2.668
   14EC       O  133   2.751   1.032   2.558
   14EC       C  134   2.890   1.014   2.570
   14EC       C  135   2.910   1.002   2.717
   14EC       O  136   2.790   0.941   2.761
   14EC       H  137   2.918   0.922   2.516
   14EC       H  138   2.945   1.098   2.527
   14EC       H  139   2.920   1.099   2.766
   14EC       H  140   2.997   0.940   2.744
   15EC       O  141   0.097   1.368   2.809
   15EC       C  142   0.189   1.423   2.866
   15EC       O  143   0.320   1.413   2.831
   15EC       C  144   0.395   1.470   2.935
   15EC       C  145   0.298   1.566   2.998
   15EC       O  146   0.173   1.502   2.977
   15EC       H  147   0.424   1.390   3.004
   15EC       H  148   0.484   1.520   2.898
   15EC       H  149   0.298   1.662   2.947
   15EC       H  150   0.316   1.581   3.105
   16EC       O  151   2.835   3.924   3.310
   16EC       C  152   2.950   3.884   3.315
   16EC       O  153   2.987   3.753   3.305
   16EC       C  154   3.124   3.746   3.340
   16EC       C  155   3.173   3.884   3.307
   16EC       O  156   3.059   3.965   3.332
   16EC       H  157   3.131   3.724   3.447
   16EC       H  158   3.176   3.669   3.283
   16EC       H  159   3.201   3.893   3.202
   16EC       H  160   3.257   3.915   3.370
   17EC       O  161   0.406   3.378   3.970
   17EC       C  162   0.489   3.296   3.935
   17EC       O  163   0.624   3.315   3.941
   17EC       C  164   0.683   3.209   3.869
   17EC       C  165   0.580   3.101   3.878
   17EC       O  166   0.458   3.174   3.882
   17EC       H  167   0.700   3.243   3.766
   17EC       H  168   0.778   3.179   3.913
   17EC       H  169   0.590   3.043   3.970
   17EC       H  170   0.582   3.033   3.792
   18EC       O  171   1.756   1.837   2.995
   18EC       C  172   1.703   1.946   3.012
   18EC       O  173   1.749   2.064   2.962
   18EC       C  174   1.674   2.166   3.024
   18EC       C  175   1.547   2.097   3.060
   18EC       O  176   1.589   1.963   3.086
   18EC       H  177   1.730   2.200   3.113
   18EC       H  178   1.658   2.250   2.957
   18EC       H  179   1.475   2.096   2.978
   18EC       H  180   1.499   2.139   3.149
   19EC       O  181   1.624   3.183   1.530
   19EC       C  182   1.523   3.114   1.526
   19EC       O  183   1.520   2.979   1.537
   19EC       C  184   1.390   2.937   1.503
   19EC       C  185   1.308   3.058   1.536
   19EC       O  186   1.397   3.165   1.510
   19EC       H  187   1.388   2.913   1.397
   19EC       H  188   1.360   2.850   1.561
   19EC       H  189   1.279   3.060   1.641
   19EC       H  190   1.218   3.066   1.474
   20EC       O  191   3.453   0.114   1.760
   20EC       C  192   3.542   0.166   1.825
   20EC       O  193   3.648   0.100   1.878
   20EC       C  194   3.713   0.189   1.965
   20EC       C  195   3.675   0.323   1.909
   20EC       O  196   3.546   0.299   1.855
   20EC       H  197   3.674   0.174   2.066
   20EC       H  198   3.821   0.174   1.966
   20EC       H  199   3.742   0.354   1.829
   20EC       H  200   3.672   0.402   1.985
   21EC       O  201   0.859   2.014   3.181
   21EC       C  202   0.784   2.093   3.126
   21EC       O  203   0.671   2.145   3.181
   21EC       C  204   0.602   2.212   3.079
   21EC       C  205   0.711   2.247   2.982
   21EC       O  206   0.803   2.141   2.999
   21EC       H  207   0.529   2.142   3.035
   21EC       H  208   0.549   2.300   3.116
   21EC       H  209   0.760   2.341   3.009
   21EC       H  210   0.676   2.252   2.879
   22EC       O  211   3.171   1.382   2.353
   22EC       C  212   3.241   1.480   2.368
   22EC       O  213   3.198   1.601   2.413
   22EC       C  214   3.303   1.692   2.392
   22EC       C  215   3.424   1.605   2.394
   22EC       O  216   3.375   1.482   2.341
   22EC       H  217   3.288   1.741   2.295
   22EC       H  218   3.306   1.769   2.470
   22EC       H  219   3.461   1.587   2.495
   22EC       H  220   3.506   1.644   2.333
   23EC       O  221   1.818   3.835   3.323
   23EC       C  222   1.791   3.739   3.253
   23EC       O  223   1.711   3.635   3.291
   23EC       C  224   1.725   3.535   3.193
   23EC       C  225   1.763   3.614   3.071
   23EC       O  226   1.837   3.722   3.125
   23EC       H  227   1.803   3.466   3.224
   23EC       H  228   1.632   3.480   3.179
   23EC       H  229   1.676   3.653   3.018
   23EC       H  230   1.825   3.556   3.001
   24EC       O  231   2.432   1.434   2.323
   24EC       C  232   2.403   1.315   2.318
   24EC       O  233   2.397   1.232   2.426
   24EC       C  234   2.385   1.101   2.376
   24EC       C  235   2.322   1.122   2.242
   24EC       O  236   2.374   1.248   2.202
   24EC       H  237   2.486   1.058   2.368
   24EC       H  238   2.324   1.039   2.441
   24EC       H  239   2.213   1.128   2.248
   24EC       H  240   2.350   1.045   2.169
   25EC       O  241   1.330   2.963   2.575
   25EC       C  242   1.229   3.032   2.585
   25EC       O  243   1.199   3.137   2.504
   25EC       C  244   1.090   3.204   2.563
   25EC       C  245   1.024   3.096   2.643
   25EC       O  246   1.133   3.013   2.681
   25EC       H  247   1.129   3.285   2.627
   25EC       H  248   1.023   3.246   2.488
   25EC       H  249   0.954   3.037   2.583
   25EC       H  250   0.972   3.134   2.732
   26EC       O  251   2.378   1.761   3.734
   26EC       C  252   2.347   1.721   3.622
   26EC       O  253   2.238   1.645   3.594
   26EC       C  254   2.252   1.601   3.461
   26EC       C  255   2.338   1.707   3.400
   26EC       O  256   2.420   1.748   3.509
   26EC       H  257   2.301   1.503   3.462
   26EC       H  258   2.155   1.593   3.411
   26EC       H  259   2.280   1.792   3.365
   26EC       H  260   2.400   1.669   3.318
   27EC       O  261   1.122   2.466   1.633
   27EC       C  262   1.223   2.398   1.623
   27EC       O  263   1.343   2.442   1.576
   27EC       C  264   1.424   2.329   1.557
   27EC       C  265   1.366   2.230   1.653
   27EC       O  266   1.229   2.265   1.656
   27EC       H  267   1.413   2.296   1.453
   27EC       H  268   1.529   2.351   1.577
   27EC       H  269   1.408   2.242   1.754
   27EC       H  270   1.379   2.126   1.621
   28EC       O  271   1.075   1.725   3.942
   28EC       C  272   1.185   1.677   3.920
   28EC       O  273   1.208   1.569   3.841
   28EC       C  274   1.343   1.531   3.862
   28EC       C  275   1.407   1.660   3.904
   28EC       O  276   1.301   1.726   3.973
   28EC       H  277   1.346   1.455   3.940
   28EC       H  278   1.387   1.491   3.771
   28EC       H  279   1.437   1.721   3.819
   28EC       H  280   1.492   1.645   3.971
   29EC       O  281   2.770   1.522   3.341
   29EC       C  282   2.887   1.550   3.317
   29EC       O  283   2.928   1.657   3.245
   29EC       C  284   3.065   1.639   3.220
   29EC       C  285   3.109   1.552   3.334
   29EC       O  286   2.993   1.475   3.360
   29EC       H  287   3.077   1.589   3.123
   29EC       H  288   3.119   1.734   3.218
   29EC       H  289   3.133   1.611   3.423
   29EC       H  290   3.194   1.488   3.309
   30EC       O  291   2.649   2.095   1.661
   30EC       C  292   2.767   2.089   1.690
   30EC       O  293   2.837   1.973   1.710
   30EC       C  294   2.961   2.009   1.765
   30EC       C  295   2.980   2.149   1.716
   30EC       O  296   2.847   2.199   1.708
   30EC       H  297   2.953   2.004   1.875
   30EC       H  298   3.040   1.942   1.732
   30EC       H  299   3.025   2.152   1.617
   30EC       H  300   3.040   2.210   1.784
   31EC       O  301   1.587   0.863   1.786
   31EC       C  302   1.471   0.900   1.780
   31EC       O  303   1.363   0.819   1.790
   31EC       C  304   1.250   0.895   1.754
   31EC       C  305   1.294   1.035   1.785
   31EC       O  306   1.434   1.031   1.761
   31EC       H  307   1.232   0.880   1.647
   31EC       H  308   1.162   0.866   1.811
   31EC       H  309   1.277   1.061   1.890
   31EC       H  310   1.246   1.110   1.721
   32EC       O  311   3.401   1.455   3.043
   32EC       C  312   3.315   1.372   3.069
   32EC       O  313   3.184   1.400   3.092
   32EC       C  314   3.125   1.282   3.142
   32EC       C  315   3.213   1.175   3.086
   32EC       O  316   3.341   1.238   3.080
   32EC       H  317   3.129   1.286   3.252
   32EC       H  318   3.022   1.272   3.109
   32EC       H  319   3.184   1.145   2.985
   32EC       H  320   3.218   1.086   3.150
   33EC       O  321   2.021   2.816   2.052
   33EC       C  322   2.032   2.937   2.040
   33EC       O  323   1.929   3.024   2.027
   33EC       C  324   1.984   3.149   1.991
   33EC       C  325   2.123   3.140   2.048
   33EC       O  326   2.153   3.002   2.038
   33EC       H  327   1.984   3.156   1.882
   33EC       H  328   1.927   3.231   2.033
   33EC       H  329   2.126   3.170   2.153
   33EC       H  330   2.195   3.200   1.991
   34EC       O  331   2.316   0.988   3.640
   34EC       C  332   2.277   1.024   3.530
   34EC       O  333   2.336   1.120   3.454
   34EC       C  334   2.249   1.148   3.348
   34EC       C  335   2.171   1.021   3.334
   34EC       O  336   2.167   0.972   3.467
   34EC       H  337   2.185   1.233   3.377
   34EC       H  338   2.303   1.174   3.257
   34EC       H  339   2.222   0.948   3.271
   34EC       H  340   2.069   1.037   3.296
   35EC       O  341   1.879   0.905   0.872
   35EC       C  342   1.891   0.928   0.991
   35EC       O  343   1.919   1.050   1.045
   35EC       C  344   1.948   1.029   1.181
   35EC       C  345   1.875   0.903   1.212
   35EC       O  346   1.879   0.832   1.088
   35EC       H  347   2.057   1.017   1.191
   35EC       H  348   1.915   1.112   1.242
   35EC       H  349   1.770   0.921   1.238
   35EC       H  350   1.922   0.844   1.291
   36EC       O  351   1.437   3.666   1.885
   36EC       C  352   1.465   3.601   1.786
   36EC       O  353   1.578   3.617   1.711
   36EC       C  354   1.560   3.542   1.594
   36EC       C  355   1.464   3.436   1.637
   36EC       O  356   1.385   3.502   1.735
   36EC       H  357   1.519   3.607   1.517
   36EC       H  358   1.655   3.500   1.559
   36EC       H  359   1.514   3.350   1.683
   36EC       H  360   1.401   3.400   1.555
   37EC       O  361   3.673   1.897   3.626
   37EC       C  362   3.591   1.861   3.709
   37EC       O  363   3.514   1.945   3.783
   37EC       C  364   3.452   1.867   3.883
   37EC       C  365   3.449   1.731   3.821
   37EC       O  366   3.566   1.730   3.740
   37EC       H  367   3.514   1.871   3.973
   37EC       H  368   3.352   1.904   3.906
   37EC       H  369   3.362   1.716   3.757
   37EC       H  370   3.453   1.650   3.895
   38EC       O  371   2.042   0.606   2.657
   38EC       C  372   2.055   0.711   2.717
   38EC       O  373   1.962   0.766   2.800
   38EC       C  374   2.004   0.897   2.828
   38EC       C  375   2.152   0.889   2.809
   38EC       O  376   2.166   0.791   2.708
   38EC       H  377   1.957   0.965   2.756
   38EC       H  378   1.977   0.927   2.929
   38EC       H  379   2.203   0.854   2.900
   38EC       H  380   2.197   0.984   2.778
   39EC       O  381   2.928   1.014   3.361
   39EC       C  382   2.817   0.973   3.334
   39EC       O  383   2.779   0.842   3.335
   39EC       C  384   2.653   0.835   3.274
   39EC       C  385   2.597   0.972   3.297
   39EC       O  386   2.713   1.054   3.296
   39EC       H  387   2.667   0.813   3.167
   39EC       H  388   2.591   0.757   3.319
   39EC       H  389   2.548   0.981   3.394
   39EC       H  390   2.527   1.003   3.219
   40EC       O  391   2.242   2.032   0.897
   40EC       C  392   2.288   1.919   0.899
   40EC       O  393   2.254   1.819   0.813
   40EC       C  394   2.310   1.700   0.865
   40EC       C  395   2.426   1.750   0.945
   40EC       O  396   2.380   1.876   0.991
   40EC       H  397   2.234   1.651   0.927
   40EC       H  398   2.341   1.632   0.785
   40EC       H  399   2.515   1.764   0.884
   40EC       H  400   2.450   1.684   1.030
   41EC       O  401   2.183   2.363   0.221
   41EC       C  402   2.151   2.412   0.328
   41EC       O  403   2.035   2.481   0.350
   41EC       C  404   2.047   2.541   0.477
   41EC       C  405   2.144   2.451   0.547
   41EC       O  406   2.227   2.405   0.441
   41EC       H  407   2.086   2.642   0.464
   41EC       H  408   1.951   2.546   0.528
   41EC       H  409   2.094   2.365   0.593
   41EC       H  410   2.203   2.503   0.623
   42EC       O  411   1.277   1.160   3.746
   42EC       C  412   1.155   1.152   3.739
   42EC       O  413   1.069   1.188   3.839
   42EC       C  414   0.942   1.141   3.802
   42EC       C  415   0.951   1.136   3.653
   42EC       O  416   1.087   1.105   3.630
   42EC       H  417   0.927   1.042   3.846
   42EC       H  418   0.863   1.208   3.836
   42EC       H  419   0.927   1.232   3.607
   42EC       H  420   0.886   1.059   3.609
   43EC       O  421   1.809   3.268   3.457
   43EC       C  422   1.811   3.146   3.453
   43EC       O  423   1.705   3.066   3.483
   43EC       C  424   1.754   2.935   3.490
   43EC       C  425   1.875   2.939   3.401
   43EC       O  426   1.921   3.073   3.417
   43EC       H  427   1.780   2.913   3.594
   43EC       H  428   1.680   2.862   3.456
   43EC       H  429   1.849   2.923   3.296
   43EC       H  430   1.952   2.868   3.431
   44EC       O  431   0.636   2.571   2.190
   44EC       C  432   0.534   2.549   2.252
   44EC       O  433   0.414   2.609   2.229
   44EC       C  434   0.330   2.574   2.337
   44EC       C  435   0.388   2.445   2.384
   44EC       O  436   0.526   2.460   2.356
   44EC       H  437   0.337   2.653   2.413
   44EC       H  438   0.226   2.564   2.305
   44EC       H  439   0.349   2.359   2.328
   44EC       H  440   0.372   2.427   2.491
   45EC       O  441   3.580   0.830   0.676
   45EC       C  442   3.573   0.895   0.780
   45EC       O  443   3.656   0.878   0.887
   45EC       C  444   3.600   0.952   0.993
   45EC       C  445   3.522   1.058   0.923
   45EC       O  446   3.481   0.992   0.804
   45EC       H  447   3.537   0.885   1.052
   45EC       H  448   3.678   0.993   1.058
   45EC       H  449   3.584   1.144   0.896
   45EC       H  450   3.435   1.092   0.980
   46EC       O  451   2.457   0.436   1.736
   46EC       C  452   2.484   0.353   1.650
   46EC       O  453   2.608   0.303   1.626
   46EC       C  454   2.601   0.232   1.505
   46EC       C  455   2.456   0.192   1.498
   46EC       O  456   2.391   0.300   1.564
   46EC       H  457   2.629   0.299   1.423
   46EC       H  458   2.667   0.146   1.505
   46EC       H  459   2.437   0.100   1.553
   46EC       H  460   2.420   0.182   1.396
   47EC       O  461   1.311   0.350   1.592
   47EC       C  462   1.402   0.295   1.652
   47EC       O  463   1.387   0.222   1.766
   47EC       C  464   1.516   0.197   1.815
   47EC       C  465   1.601   0.203   1.692
   47EC       O  466   1.533   0.299   1.612
   47EC       H  467   1.542   0.276   1.887
   47EC       H  468   1.522   0.100   1.864
   47EC       H  469   1.603   0.108   1.639
   47EC       H  470   1.703   0.236   1.712
   48EC       O  471   2.876   1.673   2.512
   48EC       C  472   2.840   1.648   2.626
   48EC       O  473   2.713   1.612   2.661
   48EC       C  474   2.707   1.615   2.801
   48EC       C  475   2.850   1.592   2.841
   48EC       O  476   2.923   1.652   2.735
   48EC       H  477   2.671   1.714   2.832
   48EC       H  478   2.641   1.538   2.841
   48EC       H  479   2.875   1.486   2.846
   48EC       H  480   2.876   1.639   2.937
   49EC       O  481   1.582   2.877   0.352
   49EC       C  482   1.464   2.858   0.326
   49EC       O  483   1.406   2.735   0.313
   49EC       C  484   1.278   2.756   0.260
   49EC       C  485   1.246   2.896   0.302
   49EC       O  486   1.374   2.959   0.304
   49EC       H  487   1.284   2.747   0.151
   49EC       H  488   1.205   2.684   0.298
   49EC       H  489   1.203   2.900   0.403
   49EC       H  490   1.179   2.948   0.233
   50EC       O  491   3.675   1.230   2.989
   50EC       C  492   3.646   1.321   2.913
   50EC       O  493   3.733   1.416   2.868
   50EC       C  494   3.656   1.514   2.803
   50EC       C  495   3.534   1.439   2.760
   50EC       O  496   3.520   1.341   2.862
   50EC       H  497   3.633   1.593   2.876
   50EC       H  498   3.710   1.558   2.719
   50EC       H  499   3.549   1.388   2.664
   50EC       H  500   3.445   1.502   2.755
   51EC       O  501   1.900   0.210   3.519
   51EC       C  502   1.801   0.282   3.517
   51EC       O  503   1.673   0.238   3.502
   51EC       C  504   1.593   0.351   3.479
   51EC       C  505   1.672   0.461   3.544
   51EC       O  506   1.806   0.418   3.527
   51EC       H  507   1.584   0.365   3.371
   51EC       H  508   1.494   0.339   3.523
   51EC       H  509   1.651   0.468   3.651
   51EC       H  510   1.656   0.558   3.497
   52EC       O  511   3.554   2.776   1.228
   52EC       C  512   3.490   2.836   1.143
   52EC       O  513   3.478   2.971   1.136
   52EC       C  514   3.377   2.998   1.042
   52EC       C  515   3.380   2.877   0.954
   52EC       O  516   3.419   2.774   1.044
   52EC       H  517   3.282   3.009   1.095
   52EC       H  518   3.398   3.090   0.986
   52EC       H  519   3.455   2.885   0.875
   52EC       H  520   3.283   2.855   0.909
   53EC       O  521   2.139   0.277   2.280
   53EC       C  522   2.193   0.305   2.175
   53EC       O  523   2.128   0.342   2.061
   53EC       C  524   2.223   0.341   1.958
   53EC       C  525   2.352   0.365   2.030
   53EC       O  526   2.329   0.303   2.156
   53EC       H  527   2.220   0.243   1.909
   53EC       H  528   2.203   0.419   1.884
   53EC       H  529   2.371   0.471   2.046
   53EC       H  530   2.438   0.320   1.980
   54EC       O  531   3.247   1.834   1.414
   54EC       C  532   3.288   1.725   1.378
   54EC       O  533   3.237   1.653   1.274
   54EC       C  534   3.295   1.525   1.280
   54EC       C  535   3.424   1.551   1.351
   54EC       O  536   3.392   1.659   1.437
   54EC       H  537   3.229   1.460   1.338
   54EC       H  538   3.310   1.483   1.181
   54EC       H  539   3.503   1.582   1.282
   54EC       H  540   3.459   1.464   1.409
   55EC       O  541   2.890   1.892   2.489
   55EC       C  542   2.992   1.958   2.495
   55EC       O  543   3.114   1.919   2.448
   55EC       C  544   3.208   2.011   2.496
   55EC       C  545   3.126   2.134   2.517
   55EC       O  546   2.999   2.082   2.552
   55EC       H  547   3.250   1.972   2.589
   55EC       H  548   3.289   2.027   2.424
   55EC       H  549   3.117   2.194   2.426
   55EC       H  550   3.165   2.198   2.598
   56EC       O  551   3.723   1.837   2.785
   56EC       C  552   3.716   1.958   2.781
   56EC       O  553   3.821   2.043   2.801
   56EC       C  554   3.767   2.173   2.813
   56EC       C  555   3.639   2.162   2.737
   56EC       O  556   3.600   2.027   2.757
   56EC       H  557   3.750   2.193   2.920
   56EC       H  558   3.834   2.248   2.772
   56EC       H  559   3.653   2.179   2.630
   56EC       H  560   3.561   2.231   2.774
   57EC       O  561   0.752   3.504   0.137
   57EC       C  562   0.692   3.417   0.198
   57EC       O  563   0.616   3.320   0.139
   57EC       C  564   0.545   3.256   0.242
   57EC       C  565   0.631   3.279   0.362
   57EC       O  566   0.691   3.405   0.334
   57EC       H  567   0.447   3.304   0.251
   57EC       H  568   0.531   3.149   0.221
   57EC       H  569   0.710   3.204   0.371
   57EC       H  570   0.574   3.283   0.455
   58EC       O  571   0.629   1.615   0.458
   58EC       C  572   0.591   1.521   0.391
   58EC       O  573   0.671   1.443   0.312
   58EC       C  574   0.586   1.364   0.233
   58EC       C  575   0.462   1.356   0.316
   58EC       O  576   0.460   1.480   0.384
   58EC       H  577   0.569   1.415   0.138
   58EC       H  578   0.629   1.266   0.214
   58EC       H  579   0.467   1.275   0.390
   58EC       H  580   0.371   1.343   0.256
   59EC       O  581   1.764   0.907   2.872
   59EC       C  582   1.693   0.811   2.896
   59EC       O  583   1.738   0.686   2.925
   59EC       C  584   1.626   0.600   2.921
   59EC       C  585   1.512   0.693   2.951
   59EC       O  586   1.556   0.816   2.895
   59EC       H  587   1.620   0.557   2.821
   59EC       H  588   1.634   0.520   2.995
   59EC       H  589   1.497   0.706   3.058
   59EC       H  590   1.418   0.661   2.905
   60EC       O  591   2.309   2.767   2.911
   60EC       C  592   2.371   2.683   2.974
   60EC       O  593   2.323   2.561   3.010
   60EC       C  594   2.415   2.505   3.100
   60EC       C  595   2.543   2.573   3.062
   60EC       O  596   2.500   2.700   3.017
   60EC       H  597   2.384   2.531   3.202
   60EC       H  598   2.421   2.397   3.090
   60EC       H  599   2.594   2.521   2.980
   60EC       H  600   2.613   2.583   3.146
   61EC       O  601   3.529   3.693   2.266
   61EC       C  602   3.604   3.616   2.323
   61EC       O  603   3.738   3.634   2.338
   61EC       C  604   3.791   3.513   2.386
   61EC       C  605   3.674   3.451   2.455
   61EC       O  606   3.563   3.498   2.379
   61EC       H  607   3.825   3.453   2.301
   61EC       H  608   3.875   3.530   2.454
   61EC       H  609   3.663   3.487   2.558
   61EC       H  610   3.677   3.342   2.455
   62EC       O  611   2.104   2.839   2.625
   62EC       C  612   2.201   2.904   2.590
   62EC       O  613   2.223   3.035   2.621
   62EC       C  614   2.331   3.078   2.542
   62EC       C  615   2.406   2.951   2.515
   62EC       O  616   2.302   2.853   2.513
   62EC       H  617   2.292   3.123   2.451
   62EC       H  618   2.393   3.151   2.595
   62EC       H  619   2.475   2.926   2.596
   62EC       H  620   2.460   2.952   2.420
   63EC       O  621   3.467   1.406   3.572
   63EC       C  622   3.542   1.369   3.660
   63EC       O  623   3.609   1.250   3.661
   63EC       C  624   3.664   1.235   3.789
   63EC       C  625   3.679   1.376   3.836
   63EC       O  626   3.570   1.442   3.773
   63EC       H  627   3.594   1.177   3.851
   63EC       H  628   3.760   1.182   3.786
   63EC       H  629   3.772   1.421   3.802
   63EC       H  630   3.672   1.386   3.945
   64EC       O  631   3.627   1.544   2.083
   64EC       C  632   3.595   1.471   1.991
   64EC       O  633   3.569   1.338   2.001
   64EC       C  634   3.560   1.287   1.871
   64EC       C  635   3.519   1.408   1.791
   64EC       O  636   3.581   1.514   1.861
   64EC       H  637   3.658   1.250   1.841
   64EC       H  638   3.487   1.207   1.864
   64EC       H  639   3.411   1.423   1.792
   64EC       H  640   3.554   1.404   1.687
   65EC       O  641   1.377   3.317   1.236
   65EC       C  642   1.472   3.383   1.196
   65EC       O  643   1.527   3.487   1.264
   65EC       C  644   1.615   3.551   1.175
   65EC       C  645   1.652   3.442   1.080
   65EC       O  646   1.535   3.362   1.076
   65EC       H  647   1.561   3.633   1.125
   65EC       H  648   1.702   3.592   1.227
   65EC       H  649   1.735   3.381   1.117
   65EC       H  650   1.676   3.479   0.980
   66EC       O  651   2.520   1.645   0.180
   66EC       C  652   2.613   1.622   0.255
   66EC       O  653   2.688   1.718   0.317
   66EC       C  654   2.799   1.653   0.373
   66EC       C  655   2.749   1.513   0.393
   66EC       O  656   2.657   1.497   0.286
   66EC       H  657   2.882   1.658   0.302
   66EC       H  658   2.830   1.699   0.467
   66EC       H  659   2.696   1.501   0.488
   66EC       H  660   2.829   1.438   0.387
   67EC       O  661   1.084   2.232   1.195
   67EC       C  662   0.976   2.182   1.167
   67EC       O  663   0.949   2.048   1.175
   67EC       C  664   0.824   2.029   1.112
   67EC       C  665   0.758   2.162   1.127
   67EC       O  666   0.867   2.252   1.123
   67EC       H  667   0.842   2.003   1.007
   67EC       H  668   0.768   1.949   1.159
   67EC       H  669   0.707   2.172   1.223
   67EC       H  670   0.687   2.184   1.046
   68EC       O  671   0.792   1.386   0.868
   68EC       C  672   0.801   1.508   0.872
   68EC       O  673   0.697   1.594   0.889
   68EC       C  674   0.746   1.723   0.863
   68EC       C  675   0.892   1.710   0.892
   68EC       O  676   0.920   1.575   0.857
   68EC       H  677   0.726   1.746   0.757
   68EC       H  678   0.697   1.798   0.925
   68EC       H  679   0.914   1.725   0.998
   68EC       H  680   0.954   1.779   0.833
   69EC       O  681   0.757   3.508   0.943
   69EC       C  682   0.652   3.563   0.969
   69EC       O  683   0.626   3.695   0.947
   69EC       C  684   0.504   3.724   1.012
   69EC       C  685   0.436   3.591   1.015
   69EC       O  686   0.544   3.499   1.025
   69EC       H  687   0.527   3.761   1.112
   69EC       H  688   0.447   3.799   0.958
   69EC       H  689   0.380   3.571   0.923
   69EC       H  690   0.368   3.580   1.101
   70EC       O  691   1.739   2.786   1.280
   70EC       C  692   1.697   2.678   1.239
   70EC       O  693   1.672   2.569   1.317
   70EC       C  694   1.651   2.461   1.230
   70EC       C  695   1.602   2.528   1.105
   70EC       O  696   1.671   2.652   1.107
   70EC       H  697   1.746   2.409   1.215
   70EC       H  698   1.577   2.391   1.271
   70EC       H  699   1.495   2.546   1.107
   70EC       H  700   1.627   2.472   1.014
   71EC       O  701   2.634   0.898   3.579
   71EC       C  702   2.570   0.797   3.605
   71EC       O  703   2.434   0.791   3.607
   71EC       C  704   2.400   0.667   3.665
   71EC       C  705   2.520   0.583   3.636
   71EC       O  706   2.626   0.677   3.638
   71EC       H  707   2.384   0.683   3.772
   71EC       H  708   2.309   0.626   3.621
   71EC       H  709   2.515   0.536   3.537
   71EC       H  710   2.536   0.505   3.712
   72EC       O  711   0.437   3.222   1.489
   72EC       C  712   0.434   3.301   1.582
   72EC       O  713   0.504   3.418   1.587
   72EC       C  714   0.493   3.467   1.718
   72EC       C  715   0.364   3.406   1.765
   72EC       O  716   0.360   3.283   1.696
   72EC       H  717   0.579   3.432   1.775
   72EC       H  718   0.490   3.576   1.720
   72EC       H  719   0.278   3.466   1.737
   72EC       H  720   0.362   3.390   1.874
   73EC       O  721   2.813   0.101   2.451
   73EC       C  722   2.875   0.206   2.450
   73EC       O  723   2.819   0.329   2.465
   73EC       C  724   2.919   0.423   2.433
   73EC       C  725   3.045   0.348   2.462
   73EC       O  726   3.010   0.214   2.432
   73EC       H  727   2.909   0.449   2.327
   73EC       H  728   2.910   0.513   2.493
   73EC       H  729   3.074   0.355   2.567
   73EC       H  730   3.129   0.381   2.399
   74EC       O  731   3.653   1.938   2.242
   74EC       C  732   3.583   2.036   2.225
   74EC       O  733   3.449   2.041   2.251
   74EC       C  734   3.401   2.161   2.196
   74EC       C  735   3.522   2.248   2.195
   74EC       O  736   3.628   2.155   2.176
   74EC       H  737   3.364   2.140   2.095
   74EC       H  738   3.320   2.203   2.256
   74EC       H  739   3.537   2.299   2.291
   74EC       H  740   3.521   2.322   2.115
   75EC       O  741   1.613   2.167   1.910
   75EC       C  742   1.598   2.282   1.874
   75EC       O  743   1.660   2.339   1.767
   75EC       C  744   1.635   2.477   1.774
   75EC       C  745   1.506   2.484   1.851
   75EC       O  746   1.515   2.371   1.937
   75EC       H  747   1.718   2.525   1.828
   75EC       H  748   1.626   2.522   1.675
   75EC       H  749   1.419   2.472   1.786
   75EC       H  750   1.495   2.576   1.909
   76EC       O  751   1.678   1.183   2.405
   76EC       C  752   1.598   1.275   2.408
   76EC       O  753   1.623   1.402   2.364
   76EC       C  754   1.517   1.482   2.407
   76EC       C  755   1.405   1.385   2.422
   76EC       O  756   1.471   1.265   2.459
   76EC       H  757   1.545   1.528   2.503
   76EC       H  758   1.494   1.561   2.336
   76EC       H  759   1.352   1.368   2.328
   76EC       H  760   1.332   1.414   2.499
   77EC       O  761   0.517   0.541   0.606
   77EC       C  762   0.464   0.648   0.583
   77EC       O  763   0.331   0.673   0.593
   77EC       C  764   0.308   0.799   0.534
   77EC       C  765   0.441   0.867   0.548
   77EC       O  766   0.533   0.759   0.540
   77EC       H  767   0.281   0.783   0.429
   77EC       H  768   0.228   0.853   0.584
   77EC       H  769   0.452   0.916   0.645
   77EC       H  770   0.460   0.940   0.469
   78EC       O  771   3.536   0.663   1.471
   78EC       C  772   3.414   0.651   1.475
   78EC       O  773   3.326   0.755   1.475
   78EC       C  774   3.200   0.701   1.506
   78EC       C  775   3.212   0.559   1.459
   78EC       O  776   3.350   0.531   1.481
   78EC       H  777   3.184   0.708   1.614
   78EC       H  778   3.120   0.755   1.454
   78EC       H  779   3.190   0.549   1.352
   78EC       H  780   3.149   0.490   1.516
   79EC       O  781   1.080   0.859   0.330
   79EC       C  782   0.979   0.886   0.392
   79EC       O  783   0.917   1.008   0.391
   79EC       C  784   0.820   1.005   0.493
   79EC       C  785   0.790   0.859   0.506
   79EC       O  786   0.913   0.798   0.474
   79EC       H  787   0.865   1.047   0.584
   79EC       H  788   0.732   1.064   0.466
   79EC       H  789   0.714   0.827   0.435
   79EC       H  790   0.758   0.831   0.607
   80EC       O  791   2.394   2.223   2.064
   80EC       C  792   2.339   2.329   2.041
   80EC       O  793   2.368   2.411   1.936
   80EC       C  794   2.302   2.532   1.959
   80EC       C  795   2.188   2.492   2.047
   80EC       O  796   2.241   2.383   2.120
   80EC       H  797   2.371   2.600   2.010
   80EC       H  798   2.268   2.578   1.867
   80EC       H  799   2.101   2.458   1.990
   80EC       H  800   2.156   2.572   2.115
   81EC       O  801   2.456   1.412   0.422
   81EC       C  802   2.334   1.414   0.427
   81EC       O  803   2.255   1.495   0.352
   81EC       C  804   2.125   1.485   0.405
   81EC       C  805   2.125   1.351   0.470
   81EC       O  806   2.260   1.336   0.512
   81EC       H  807   2.111   1.566   0.477
   81EC       H  808   2.049   1.493   0.327
   81EC       H  809   2.101   1.271   0.399
   81EC       H  810   2.057   1.344   0.555
   82EC       O  811   1.259   0.274   2.153
   82EC       C  812   1.297   0.368   2.084
   82EC       O  813   1.218   0.470   2.040
   82EC       C  814   1.292   0.542   1.946
   82EC       C  815   1.434   0.514   1.986
   82EC       O  816   1.426   0.383   2.040
   82EC       H  817   1.269   0.502   1.846
   82EC       H  818   1.269   0.648   1.948
   82EC       H  819   1.468   0.582   2.064
   82EC       H  820   1.504   0.517   1.902
   83EC       O  821   0.775   2.427   3.534
   83EC       C  822   0.834   2.321   3.525
   83EC       O  823   0.775   2.201   3.502
   83EC       C  824   0.873   2.102   3.523
   83EC       C  825   1.000   2.176   3.497
   83EC       O  826   0.970   2.308   3.538
   83EC       H  827   0.866   2.068   3.627
   83EC       H  828   0.860   2.017   3.457
   83EC       H  829   1.026   2.177   3.390
   83EC       H  830   1.085   2.136   3.553
   84EC       O  831   3.635   0.274   3.846
   84EC       C  832   3.514   0.291   3.846
   84EC       O  833   3.422   0.190   3.856
   84EC       C  834   3.296   0.247   3.827
   84EC       C  835   3.316   0.391   3.864
   84EC       O  836   3.453   0.413   3.835
   84EC       H  837   3.276   0.233   3.721
   84EC       H  838   3.217   0.200   3.886
   84EC       H  839   3.298   0.409   3.970
   84EC       H  840   3.253   0.459   3.805
   85EC       O  841   2.736   2.274   3.618
   85EC       C  842   2.715   2.384   3.569
   85EC       O  843   2.629   2.409   3.466
   85EC       C  844   2.652   2.541   3.425
   85EC       C  845   2.707   2.606   3.548
   85EC       O  846   2.776   2.499   3.612
   85EC       H  847   2.724   2.539   3.343
   85EC       H  848   2.560   2.589   3.390
   85EC       H  849   2.628   2.642   3.614
   85EC       H  850   2.775   2.689   3.526
   86DMC      C  851   3.118   3.582   2.484
   86DMC      O  852   3.249   3.530   2.508
   86DMC      C  853   3.299   3.561   2.630
   86DMC      O  854   3.242   3.628   2.716
   86DMC      O  855   3.423   3.506   2.641
   86DMC      C  856   3.486   3.532   2.766
   86DMC      H  857   3.118   3.692   2.489
   86DMC      H  858   3.087   3.552   2.384
   86DMC      H  859   3.047   3.542   2.556
   86DMC      H  860   3.585   3.484   2.764
   86DMC      H  861   3.501   3.640   2.780
   86DMC      H  862   3.428   3.489   2.848
   87DMC      C  863   2.028   1.891   3.074
   87DMC      O  864   2.128   1.788   3.074
   87DMC      C  865   2.246   1.826   3.021
   87DMC      O  866   2.271   1.936   2.974
   87DMC      O  867   2.332   1.721   3.027
   87DMC      C  868   2.460   1.747   2.973
   87DMC      H  869   2.005   1.922   2.972
   87DMC      H  870   1.937   1.851   3.119
   87DMC      H  871   2.061   1.977   3.133
   87DMC      H  872   2.521   1.656   2.982
   87DMC      H  873   2.452   1.772   2.866
   87DMC      H  874   2.509   1.828   3.028
   88DMC      C  875   2.558   2.685   0.894
   88DMC      O  876   2.431   2.619   0.886
   88DMC      C  877   2.441   2.486   0.861
   88DMC      O  878   2.544   2.423   0.846
   88DMC      O  879   2.315   2.435   0.856
   88DMC      C  880   2.311   2.295   0.830
   88DMC      H  881   2.612   2.677   0.800
   88DMC      H  882   2.540   2.791   0.915
   88DMC      H  883   2.617   2.644   0.977
   88DMC      H  884   2.206   2.264   0.827
   88DMC      H  885   2.356   2.273   0.733
   88DMC      H  886   2.361   2.240   0.910
   89DMC      C  887   0.447   0.646   0.279
   89DMC      O  888   0.579   0.592   0.264
   89DMC      C  889   0.581   0.459   0.236
   89DMC      O  890   0.483   0.387   0.225
   89DMC      O  891   0.710   0.420   0.224
   89DMC      C  892   0.726   0.282   0.195
   89DMC      H  893   0.395   0.598   0.363
   89DMC      H  894   0.457   0.753   0.301
   89DMC      H  895   0.390   0.635   0.187
   89DMC      H  896   0.833   0.260   0.188
   89DMC      H  897   0.684   0.221   0.277
   89DMC      H  898   0.679   0.257   0.100
   90DMC      C  899   0.599   0.556   2.372
   90DMC      O  900   0.702   0.653   2.346
   90DMC      C  901   0.742   0.657   2.217
   90DMC      O  902   0.698   0.587   2.126
   90DMC      O  903   0.838   0.751   2.205
   90DMC      C  904   0.889   0.765   2.073
   90DMC      H  905   0.634   0.455   2.349
   90DMC      H  906   0.574   0.561   2.478
   90DMC      H  907   0.509   0.580   2.314
   90DMC      H  908   0.967   0.843   2.075
   90DMC      H  909   0.936   0.672   2.040
   90DMC      H  910   0.810   0.796   2.005
   91DMC      C  911   2.756   0.443   3.430
   91DMC      O  912   2.626   0.384   3.424
   91DMC      C  913   2.592   0.315   3.536
   91DMC      O  914   2.661   0.300   3.635
   91DMC      O  915   2.467   0.264   3.518
   91DMC      C  916   2.419   0.189   3.628
   91DMC      H  917   2.833   0.366   3.442
   91DMC      H  918   2.774   0.496   3.336
   91DMC      H  919   2.761   0.515   3.512
   91DMC      H  920   2.319   0.151   3.604
   91DMC      H  921   2.484   0.101   3.646
   91DMC      H  922   2.413   0.251   3.717
   92DMC      C  923   2.391   0.730   3.179
   92DMC      O  924   2.265   0.728   3.111
   92DMC      C  925   2.242   0.615   3.040
   92DMC      O  926   2.319   0.520   3.031
   92DMC      O  927   2.120   0.625   2.982
   92DMC      C  928   2.084   0.512   2.903
   92DMC      H  929   2.473   0.723   3.107
   92DMC      H  930   2.400   0.824   3.233
   92DMC      H  931   2.397   0.648   3.251
   92DMC      H  932   1.985   0.530   2.860
   92DMC      H  933   2.156   0.498   2.821
   92DMC      H  934   2.079   0.423   2.966
   93DMC      C  935   1.275   3.199   0.522
   93DMC      O  936   1.234   3.256   0.397
   93DMC      C  937   1.106   3.227   0.363
   93DMC      O  938   1.028   3.160   0.429
   93DMC      O  939   1.080   3.286   0.244
   93DMC      C  940   0.948   3.264   0.197
   93DMC      H  941   1.269   3.090   0.519
   93DMC      H  942   1.379   3.228   0.540
   93DMC      H  943   1.214   3.239   0.604
   93DMC      H  944   0.937   3.314   0.100
   93DMC      H  945   0.930   3.156   0.181
   93DMC      H  946   0.875   3.305   0.266
   94DMC      C  947   2.586   0.399   2.355
   94DMC      O  948   2.678   0.508   2.348
   94DMC      C  949   2.621   0.629   2.367
   94DMC      O  950   2.503   0.650   2.389
   94DMC      O  951   2.719   0.724   2.358
   94DMC      C  952   2.672   0.856   2.376
   94DMC      H  953   2.509   0.408   2.278
   94DMC      H  954   2.641   0.306   2.339
   94DMC      H  955   2.540   0.394   2.454
   94DMC      H  956   2.757   0.925   2.366
   94DMC      H  957   2.598   0.882   2.299
   94DMC      H  958   2.629   0.869   2.476
   95DMC      C  959   3.104   2.365   1.159
   95DMC      O  960   3.215   2.306   1.089
   95DMC      C  961   3.179   2.234   0.981
   95DMC      O  962   3.065   2.215   0.942
   95DMC      O  963   3.292   2.184   0.924
   95DMC      C  964   3.268   2.105   0.809
   95DMC      H  965   3.037   2.287   1.197
   95DMC      H  966   3.143   2.422   1.244
   95DMC      H  967   3.050   2.434   1.094
   95DMC      H  968   3.365   2.069   0.771
   95DMC      H  969   3.208   2.017   0.834
   95DMC      H  970   3.220   2.164   0.731
   96DMC      C  971   0.738   0.451   3.130
   96DMC      O  972   0.600   0.434   3.168
   96DMC      C  973   0.519   0.532   3.121
   96DMC      O  974   0.554   0.628   3.054
   96DMC      O  975   0.393   0.506   3.162
   96DMC      C  976   0.297   0.602   3.120
   96DMC      H  977   0.778   0.544   3.171
   96DMC      H  978   0.795   0.367   3.172
   96DMC      H  979   0.749   0.448   3.022
   96DMC      H  980   0.199   0.572   3.159
   96DMC      H  981   0.322   0.701   3.162
   96DMC      H  982   0.292   0.606   3.011
   97DMC      C  983   0.958   2.423   3.250
   97DMC      O  984   0.856   2.484   3.170
   97DMC      C  985   0.767   2.558   3.242
   97DMC      O  986   0.768   2.574   3.363
   97DMC      O  987   0.677   2.611   3.155
   97DMC      C  988   0.578   2.691   3.218
   97DMC      H  989   0.913   2.353   3.323
   97DMC      H  990   1.024   2.366   3.184
   97DMC      H  991   1.017   2.498   3.302
   97DMC      H  992   0.510   2.728   3.140
   97DMC      H  993   0.519   2.630   3.288
   97DMC      H  994   0.623   2.776   3.268
   98DMC      C  995   1.561   1.838   2.397
   98DMC      O  996   1.469   1.778   2.304
   98DMC      C  997   1.501   1.798   2.174
   98DMC      O  998   1.597   1.861   2.133
   98DMC      O  999   1.408   1.736   2.097
   98DMC      C 1000   1.430   1.750   1.958
   98DMC      H 1001   1.563   1.946   2.383
   98DMC      H 1002   1.526   1.816   2.498
   98DMC      H 1003   1.661   1.796   2.384
   98DMC      H 1004   1.349   1.698   1.905
   98DMC      H 1005   1.426   1.856   1.929
   98DMC      H 1006   1.525   1.705   1.930
   99DMC      C 1007   3.550   1.858   0.343
   99DMC      O 1008   3.635   1.743   0.329
   99DMC      C 1009   3.586   1.632   0.390
   99DMC      O 1010   3.482   1.625   0.453
   99DMC      O 1011   3.674   1.531   0.369
   99DMC      C 1012   3.635   1.408   0.429
   99DMC      H 1013   3.539   1.885   0.448
   99DMC      H 1014   3.598   1.942   0.290
   99DMC      H 1015   3.453   1.840   0.298
   99DMC      H 1016   3.712   1.333   0.407
   99DMC      H 1017   3.628   1.419   0.538
   99DMC      H 1018   3.540   1.374   0.387
  100DMC      C 1019   1.368   1.331   2.031
  100DMC      O 1020   1.481   1.263   2.088
  100DMC      C 1021   1.559   1.201   1.997
  100DMC      O 1022   1.541   1.199   1.876
  100DMC      O 1023   1.662   1.141   2.063
  100DMC      C 1024   1.752   1.072   1.979
  100DMC      H 1025   1.303   1.261   1.979
  100DMC      H 1026   1.312   1.378   2.112
  100DMC      H 1027   1.402   1.410   1.962
  100DMC      H 1028   1.830   1.027   2.041
  100DMC      H 1029   1.700   0.991   1.925
  100DMC      H 1030   1.799   1.141   1.908
  101DMC      C 1031   1.147   0.195   1.899
  101DMC      O 1032   1.021   0.220   1.837
  101DMC      C 1033   0.954   0.325   1.890
  101DMC      O 1034   0.992   0.395   1.983
  101DMC      O 1035   0.837   0.339   1.822
  101DMC      C 1036   0.756   0.446   1.869
  101DMC      H 1037   1.134   0.170   2.005
  101DMC      H 1038   1.193   0.109   1.850
  101DMC      H 1039   1.214   0.280   1.888
  101DMC      H 1040   0.664   0.449   1.809
  101DMC      H 1041   0.728   0.430   1.974
  101DMC      H 1042   0.808   0.541   1.857
  102DMC      C 1043   0.744   0.189   2.772
  102DMC      O 1044   0.823   0.283   2.699
  102DMC      C 1045   0.937   0.320   2.763
  102DMC      O 1046   0.973   0.281   2.873
  102DMC      O 1047   1.003   0.409   2.685
  102DMC      C 1048   1.125   0.456   2.741
  102DMC      H 1049   0.711   0.231   2.867
  102DMC      H 1050   0.656   0.165   2.712
  102DMC      H 1051   0.800   0.097   2.789
  102DMC      H 1052   1.170   0.527   2.671
  102DMC      H 1053   1.105   0.509   2.835
  102DMC      H 1054   1.194   0.374   2.757
  103DMC      C 1055   1.161   3.480   1.307
  103DMC      O 1056   1.219   3.574   1.215
  103DMC      C 1057   1.227   3.700   1.264
  103DMC      O 1058   1.189   3.737   1.375
  103DMC      O 1059   1.284   3.779   1.169
  103DMC      C 1060   1.297   3.915   1.208
  103DMC      H 1061   1.058   3.509   1.331
  103DMC      H 1062   1.159   3.382   1.259
  103DMC      H 1063   1.221   3.473   1.398
  103DMC      H 1064   1.343   3.970   1.125
  103DMC      H 1065   1.199   3.959   1.228
  103DMC      H 1066   1.362   3.924   1.296
  104DMC      C 1067   3.870   3.511   1.022
  104DMC      O 1068   3.756   3.454   0.956
  104DMC      C 1069   3.702   3.534   0.861
  104DMC      O 1070   3.741   3.646   0.831
  104DMC      O 1071   3.596   3.469   0.806
  104DMC      C 1072   3.530   3.543   0.705
  104DMC      H 1073   3.842   3.603   1.074
  104DMC      H 1074   3.907   3.439   1.095
  104DMC      H 1075   3.950   3.531   0.950
  104DMC      H 1076   3.446   3.483   0.668
  104DMC      H 1077   3.488   3.636   0.746
  104DMC      H 1078   3.597   3.564   0.622
  105DMC      C 1079   1.534   1.474   1.496
  105DMC      O 1080   1.399   1.496   1.537
  105DMC      C 1081   1.307   1.458   1.445
  105DMC      O 1082   1.332   1.410   1.335
  105DMC      O 1083   1.184   1.483   1.495
  105DMC      C 1084   1.078   1.448   1.407
  105DMC      H 1085   1.558   1.532   1.406
  105DMC      H 1086   1.600   1.507   1.576
  105DMC      H 1087   1.553   1.368   1.478
  105DMC      H 1088   0.983   1.473   1.457
  105DMC      H 1089   1.084   1.506   1.314
  105DMC      H 1090   1.079   1.341   1.386
  106DMC      C 1091   1.852   2.889   2.307
  106DMC      O 1092   1.886   2.954   2.429
  106DMC      C 1093   1.863   3.088   2.429
  106DMC      O 1094   1.819   3.152   2.335
  106DMC      O 1095   1.899   3.138   2.550
  106DMC      C 1096   1.880   3.278   2.562
  106DMC      H 1097   1.912   2.928   2.224
  106DMC      H 1098   1.873   2.782   2.317
  106DMC      H 1099   1.745   2.900   2.285
  106DMC      H 1100   1.913   3.308   2.662
  106DMC      H 1101   1.942   3.331   2.489
  106DMC      H 1102   1.775   3.304   2.550
  107DMC      C 1103   0.514   2.829   0.490
  107DMC      O 1104   0.471   2.758   0.374
  107DMC      C 1105   0.541   2.644   0.350
  107DMC      O 1106   0.633   2.602   0.417
  107DMC      O 1107   0.490   2.586   0.238
  107DMC      C 1108   0.555   2.465   0.202
  107DMC      H 1109   0.618   2.861   0.479
  107DMC      H 1110   0.452   2.919   0.501
  107DMC      H 1111   0.502   2.768   0.580
  107DMC      H 1112   0.508   2.427   0.111
  107DMC      H 1113   0.661   2.484   0.180
  107DMC      H 1114   0.545   2.391   0.281
  108DMC      C 1115   1.286   2.501   1.313
  108DMC      O 1116   1.194   2.611   1.309
  108DMC      C 1117   1.173   2.669   1.429
  108DMC      O 1118   1.224   2.634   1.535
  108DMC      O 1119   1.085   2.771   1.413
  108DMC      C 1120   1.054   2.840   1.533
  108DMC      H 1121   1.249   2.421   1.377
  108DMC      H 1122   1.297   2.462   1.211
  108DMC      H 1123   1.385   2.535   1.347
  108DMC      H 1124   0.982   2.919   1.509
  108DMC      H 1125   1.007   2.772   1.605
  108DMC      H 1126   1.143   2.885   1.575
  109DMC      C 1127   1.988   1.823   2.402
  109DMC      O 1128   2.100   1.885   2.467
  109DMC      C 1129   2.210   1.807   2.473
  109DMC      O 1130   2.220   1.694   2.429
  109DMC      O 1131   2.308   1.877   2.536
  109DMC      C 1132   2.430   1.806   2.549
  109DMC      H 1133   1.958   1.733   2.456
  109DMC      H 1134   1.905   1.894   2.403
  109DMC      H 1135   2.012   1.799   2.299
  109DMC      H 1136   2.502   1.870   2.601
  109DMC      H 1137   2.416   1.715   2.609
  109DMC      H 1138   2.471   1.781   2.450
  110DMC      C 1139   3.029   1.893   3.429
  110DMC      O 1140   2.967   2.022   3.437
  110DMC      C 1141   2.924   2.069   3.317
  110DMC      O 1142   2.936   2.012   3.209
  110DMC      O 1143   2.867   2.190   3.337
  110DMC      C 1144   2.818   2.251   3.219
  110DMC      H 1145   3.119   1.897   3.366
  110DMC      H 1146   3.059   1.864   3.530
  110DMC      H 1147   2.959   1.818   3.391
  110DMC      H 1148   2.775   2.349   3.246
  110DMC      H 1149   2.901   2.269   3.148
  110DMC      H 1150   2.741   2.190   3.173
  111DMC      C 1151   3.848   1.856   3.137
  111DMC      O 1152   3.834   1.715   3.159
  111DMC      C 1153   3.725   1.682   3.232
  111DMC      O 1154   3.643   1.761   3.279
  111DMC      O 1155   3.722   1.547   3.245
  111DMC      C 1156   3.612   1.499   3.321
  111DMC      H 1157   3.860   1.909   3.232
  111DMC      H 1158   3.938   1.873   3.077
  111DMC      H 1159   3.762   1.896   3.082
  111DMC      H 1160   3.620   1.390   3.327
  111DMC      H 1161   3.616   1.538   3.424
  111DMC      H 1162   3.518   1.525   3.273
  112DMC      C 1163   0.729   2.235   2.114
  112DMC      O 1164   0.744   2.112   2.043
  112DMC      C 1165   0.703   2.003   2.113
  112DMC      O 1166   0.657   2.004   2.226
  112DMC      O 1167   0.723   1.893   2.035
  112DMC      C 1168   0.684   1.772   2.097
  112DMC      H 1169   0.788   2.235   2.206
  112DMC      H 1170   0.764   2.317   2.050
  112DMC      H 1171   0.624   2.254   2.137
  112DMC      H 1172   0.704   1.690   2.028
  112DMC      H 1173   0.743   1.754   2.188
  112DMC      H 1174   0.577   1.773   2.120
  113DMC      C 1175   0.449   3.668   2.584
  113DMC      O 1176   0.423   3.529   2.606
  113DMC      C 1177   0.386   3.500   2.733
  113DMC      O 1178   0.376   3.581   2.825
  113DMC      O 1179   0.364   3.366   2.742
  113DMC      C 1180   0.326   3.323   2.871
  113DMC      H 1181   0.532   3.703   2.646
  113DMC      H 1182   0.477   3.681   2.479
  113DMC      H 1183   0.359   3.727   2.602
  113DMC      H 1184   0.311   3.214   2.868
  113DMC      H 1185   0.405   3.344   2.944
  113DMC      H 1186   0.231   3.369   2.901
  114DMC      C 1187   0.177   1.840   2.570
  114DMC      O 1188   0.235   1.748   2.476
  114DMC      C 1189   0.291   1.639   2.533
  114DMC      O 1190   0.295   1.615   2.653
  114DMC      O 1191   0.342   1.561   2.435
  114DMC      C 1192   0.404   1.442   2.482
  114DMC      H 1193   0.253   1.878   2.638
  114DMC      H 1194   0.135   1.924   2.514
  114DMC      H 1195   0.096   1.791   2.625
  114DMC      H 1196   0.443   1.387   2.396
  114DMC      H 1197   0.489   1.467   2.547
  114DMC      H 1198   0.332   1.379   2.535
  115DMC      C 1199   1.365   2.632   2.343
  115DMC      O 1200   1.223   2.621   2.351
  115DMC      C 1201   1.157   2.691   2.256
  115DMC      O 1202   1.208   2.760   2.169
  115DMC      O 1203   1.023   2.672   2.274
  115DMC      C 1204   0.942   2.741   2.180
  115DMC      H 1205   1.397   2.736   2.356
  115DMC      H 1206   1.409   2.572   2.423
  115DMC      H 1207   1.402   2.594   2.247
  115DMC      H 1208   0.837   2.720   2.204
  115DMC      H 1209   0.958   2.850   2.189
  115DMC      H 1210   0.963   2.707   2.079
  116DMC      C 1211   2.761   2.275   1.974
  116DMC      O 1212   2.842   2.379   2.031
  116DMC      C 1213   2.918   2.338   2.135
  116DMC      O 1214   2.920   2.225   2.182
  116DMC      O 1215   2.989   2.444   2.180
  116DMC      C 1216   3.073   2.414   2.291
  116DMC      H 1217   2.690   2.236   2.048
  116DMC      H 1218   2.705   2.317   1.890
  116DMC      H 1219   2.824   2.194   1.935
  116DMC      H 1220   3.126   2.506   2.319
  116DMC      H 1221   3.013   2.381   2.377
  116DMC      H 1222   3.147   2.339   2.264
  117DMC      C 1223   1.117   0.815   3.639
  117DMC      O 1224   1.198   0.910   3.569
  117DMC      C 1225   1.221   0.876   3.440
  117DMC      O 1226   1.179   0.776   3.383
  117DMC      O 1227   1.298   0.973   3.384
  117DMC      C 1228   1.329   0.950   3.247
  117DMC      H 1229   1.165   0.717   3.642
  117DMC      H 1230   1.105   0.851   3.742
  117DMC      H 1231   1.018   0.808   3.594
  117DMC      H 1232   1.392   1.032   3.212
  117DMC      H 1233   1.386   0.856   3.236
  117DMC      H 1234   1.238   0.947   3.187
  118DMC      C 1235   2.161   0.386   0.914
  118DMC      O 1236   2.145   0.395   1.056
  118DMC      C 1237   2.212   0.498   1.112
  118DMC      O 1238   2.282   0.579   1.053
  118DMC      O 1239   2.189   0.497   1.246
  118DMC      C 1240   2.254   0.601   1.317
  118DMC      H 1241   2.266   0.370   0.888
  118DMC      H 1242   2.103   0.300   0.879
  118DMC      H 1243   2.122   0.476   0.865
  118DMC      H 1244   2.230   0.590   1.424
  118DMC      H 1245   2.363   0.592   1.306
  118DMC      H 1246   2.219   0.698   1.283
  119DMC      C 1247   0.834   1.467   2.938
  119DMC      O 1248   0.827   1.464   2.795
  119DMC      C 1249   0.924   1.536   2.735
  119DMC      O 1250   1.011   1.601   2.791
  119DMC      O 1251   0.908   1.525   2.600
  119DMC      C 1252   1.003   1.597   2.524
  119DMC      H 1253   0.822   1.569   2.975
  119DMC      H 1254   0.752   1.406   2.978
  119DMC      H 1255   0.928   1.425   2.973
  119DMC      H 1256   0.981   1.583   2.418
  119DMC      H 1257   0.996   1.705   2.546
  119DMC      H 1258   1.104   1.560   2.544
  120DMC      C 1259   3.508   0.501   3.436
  120DMC      O 1260   3.604   0.438   3.521
  120DMC      C 1261   3.620   0.500   3.640
  120DMC      O 1262   3.563   0.602   3.676
  120DMC      O 1263   3.712   0.431   3.712
  120DMC      C 1264   3.739   0.486   3.840
  120DMC      H 1265   3.540   0.603   3.411
  120DMC      H 1266   3.502   0.443   3.343
  120DMC      H 1267   3.409   0.502   3.482
  120DMC      H 1268   3.815   0.424   3.889
  120DMC      H 1269   3.780   0.588   3.830
  120DMC      H 1270   3.649   0.487   3.901
  121DMC      C 1271   3.068   0.323   3.556
  121DMC      O 1272   3.200   0.352   3.510
  121DMC      C 1273   3.280   0.243   3.501
  121DMC      O 1274   3.248   0.129   3.529
  121DMC      O 1275   3.402   0.283   3.456
  121DMC      C 1276   3.496   0.178   3.442
  121DMC      H 1277   3.071   0.281   3.657
  121DMC      H 1278   3.011   0.417   3.560
  121DMC      H 1279   3.017   0.255   3.488
  121DMC      H 1280   3.590   0.220   3.406
  121DMC      H 1281   3.515   0.130   3.540
  121DMC      H 1282   3.461   0.104   3.370
  122DMC      C 1283   1.180   1.310   0.328
  122DMC      O 1284   1.169   1.346   0.466
  122DMC      C 1285   1.079   1.271   0.535
  122DMC      O 1286   1.011   1.181   0.489
  122DMC      O 1287   1.078   1.314   0.664
  122DMC      C 1288   0.987   1.244   0.747
  122DMC      H 1289   1.085   1.324   0.276
  122DMC      H 1290   1.255   1.375   0.281
  122DMC      H 1291   1.214   1.207   0.317
  122DMC      H 1292   0.993   1.286   0.848
  122DMC      H 1293   0.884   1.256   0.711
  122DMC      H 1294   1.014   1.138   0.752
  123DMC      C 1295   3.268   2.892   3.137
  123DMC      O 1296   3.380   2.967   3.091
  123DMC      C 1297   3.488   2.960   3.172
  123DMC      O 1298   3.495   2.897   3.276
  123DMC      O 1299   3.588   3.034   3.117
  123DMC      C 1300   3.707   3.035   3.193
  123DMC      H 1301   3.234   2.929   3.235
  123DMC      H 1302   3.186   2.904   3.066
  123DMC      H 1303   3.292   2.786   3.143
  123DMC      H 1304   3.781   3.099   3.141
  123DMC      H 1305   3.690   3.079   3.292
  123DMC      H 1306   3.748   2.934   3.201
  124DMC      C 1307   1.171   1.587   1.052
  124DMC      O 1308   1.279   1.645   0.979
  124DMC      C 1309   1.369   1.709   1.057
  124DMC      O 1310   1.363   1.721   1.178
  124DMC      O 1311   1.467   1.759   0.977
  124DMC      C 1312   1.568   1.830   1.047
  124DMC      H 1313   1.114   1.664   1.104
  124DMC      H 1314   1.104   1.537   0.980
  124DMC      H 1315   1.207   1.512   1.122
  124DMC      H 1316   1.641   1.866   0.973
  124DMC      H 1317   1.526   1.917   1.098
  124DMC      H 1318   1.619   1.764   1.117
  125DMC      C 1319   0.828   3.185   1.173
  125DMC      O 1320   0.748   3.303   1.162
  125DMC      C 1321   0.760   3.387   1.268
  125DMC      O 1322   0.831   3.369   1.366
  125DMC      O 1323   0.680   3.495   1.246
  125DMC      C 1324   0.684   3.591   1.350
  125DMC      H 1325   0.799   3.126   1.260
  125DMC      H 1326   0.811   3.124   1.083
  125DMC      H 1327   0.934   3.210   1.177
  125DMC      H 1328   0.616   3.673   1.323
  125DMC      H 1329   0.649   3.547   1.444
  125DMC      H 1330   0.785   3.631   1.361
  126DMC      C 1331   3.424   2.583   1.844
  126DMC      O 1332   3.562   2.621   1.839
  126DMC      C 1333   3.586   2.747   1.882
  126DMC      O 1334   3.502   2.826   1.922
  126DMC      O 1335   3.719   2.770   1.874
  126DMC      C 1336   3.758   2.900   1.916
  126DMC      H 1337   3.364   2.648   1.779
  126DMC      H 1338   3.415   2.480   1.807
  126DMC      H 1339   3.386   2.587   1.946
  126DMC      H 1340   3.867   2.909   1.905
  126DMC      H 1341   3.711   2.977   1.853
  126DMC      H 1342   3.732   2.915   2.021
  127DMC      C 1343   1.092   2.683   3.177
  127DMC      O 1344   1.132   2.801   3.107
  127DMC      C 1345   1.262   2.801   3.069
  127DMC      O 1346   1.343   2.712   3.092
  127DMC      O 1347   1.287   2.917   3.003
  127DMC      C 1348   1.422   2.929   2.959
  127DMC      H 1349   1.149   2.672   3.270
  127DMC      H 1350   0.986   2.692   3.203
  127DMC      H 1351   1.105   2.594   3.115
  127DMC      H 1352   1.432   3.026   2.908
  127DMC      H 1353   1.491   2.929   3.044
  127DMC      H 1354   1.446   2.850   2.888
  128DMC      C 1355   0.709   1.057   1.977
  128DMC      O 1356   0.756   0.990   2.095
  128DMC      C 1357   0.672   0.999   2.201
  128DMC      O 1358   0.566   1.059   2.203
  128DMC      O 1359   0.728   0.931   2.304
  128DMC      C 1360   0.649   0.934   2.423
  128DMC      H 1361   0.698   1.165   1.997
  128DMC      H 1362   0.782   1.044   1.898
  128DMC      H 1363   0.614   1.015   1.944
  128DMC      H 1364   0.703   0.877   2.500
  128DMC      H 1365   0.637   1.037   2.459
  128DMC      H 1366   0.552   0.887   2.406
  129DMC      C 1367   3.185   0.930   1.149
  129DMC      O 1368   3.227   0.800   1.107
  129DMC      C 1369   3.347   0.762   1.157
  129DMC      O 1370   3.418   0.829   1.231
  129DMC      O 1371   3.376   0.638   1.111
  129DMC      C 1372   3.500   0.587   1.157
  129DMC      H 1373   3.256   1.006   1.115
  129DMC      H 1374   3.088   0.951   1.103
  129DMC      H 1375   3.174   0.934   1.257
  129DMC      H 1376   3.514   0.486   1.114
  129DMC      H 1377   3.583   0.650   1.122
  129DMC      H 1378   3.501   0.578   1.265
  130DMC      C 1379   3.017   0.931   1.938
  130DMC      O 1380   3.050   1.067   1.967
  130DMC      C 1381   3.154   1.081   2.053
  130DMC      O 1382   3.216   0.990   2.105
  130DMC      O 1383   3.176   1.214   2.073
  130DMC      C 1384   3.282   1.242   2.162
  130DMC      H 1385   2.987   0.878   2.029
  130DMC      H 1386   2.934   0.930   1.867
  130DMC      H 1387   3.102   0.880   1.891
  130DMC      H 1388   3.291   1.351   2.172
  130DMC      H 1389   3.260   1.201   2.262
  130DMC      H 1390   3.376   1.203   2.124
  131DMC      C 1391   2.038   0.592   3.642
  131DMC      O 1392   2.117   0.477   3.610
  131DMC      C 1393   2.165   0.477   3.483
  131DMC      O 1394   2.145   0.564   3.400
  131DMC      O 1395   2.238   0.364   3.465
  131DMC      C 1396   2.294   0.353   3.336
  131DMC      H 1397   1.949   0.597   3.577
  131DMC      H 1398   2.004   0.582   3.746
  131DMC      H 1399   2.097   0.683   3.634
  131DMC      H 1400   2.351   0.258   3.331
  131DMC      H 1401   2.215   0.348   3.260
  131DMC      H 1402   2.363   0.435   3.316
  132DMC      C 1403   3.849   0.748   2.883
  132DMC      O 1404   3.783   0.624   2.913
  132DMC      C 1405   3.663   0.640   2.974
  132DMC      O 1406   3.611   0.746   3.004
  132DMC      O 1407   3.611   0.516   2.997
  132DMC      C 1408   3.485   0.519   3.061
  132DMC      H 1409   3.870   0.804   2.974
  132DMC      H 1410   3.944   0.725   2.834
  132DMC      H 1411   3.789   0.808   2.814
  132DMC      H 1412   3.452   0.415   3.075
  132DMC      H 1413   3.493   0.566   3.160
  132DMC      H 1414   3.411   0.570   2.999
  133DMC      C 1415   1.242   2.976   0.777
  133DMC      O 1416   1.314   3.092   0.735
  133DMC      C 1417   1.445   3.090   0.766
  133DMC      O 1418   1.503   3.000   0.826
  133DMC      O 1419   1.502   3.205   0.721
  133DMC      C 1420   1.641   3.214   0.749
  133DMC      H 1421   1.245   2.965   0.885
  133DMC      H 1422   1.137   2.987   0.746
  133DMC      H 1423   1.282   2.886   0.728
  133DMC      H 1424   1.677   3.310   0.709
  133DMC      H 1425   1.659   3.214   0.857
  133DMC      H 1426   1.696   3.134   0.699
  134DMC      C 1427   2.944   2.479   3.917
  134DMC      O 1428   3.071   2.429   3.962
  134DMC      C 1429   3.177   2.501   3.917
  134DMC      O 1430   3.171   2.599   3.845
  134DMC      O 1431   3.290   2.444   3.966
  134DMC      C 1432   3.409   2.510   3.926
  134DMC      H 1433   2.938   2.476   3.808
  134DMC      H 1434   2.866   2.415   3.958
  134DMC      H 1435   2.928   2.581   3.953
  134DMC      H 1436   3.494   2.456   3.970
  134DMC      H 1437   3.420   2.507   3.817
  134DMC      H 1438   3.410   2.613   3.962
  135DMC      C 1439   0.865   1.897   0.552
  135DMC      O 1440   0.730   1.901   0.601
  135DMC      C 1441   0.716   1.973   0.715
  135DMC      O 1442   0.805   2.030   0.776
  135DMC      O 1443   0.584   1.970   0.750
  135DMC      C 1444   0.555   2.041   0.869
  135DMC      H 1445   0.931   1.849   0.625
  135DMC      H 1446   0.866   1.838   0.460
  135DMC      H 1447   0.901   1.997   0.529
  135DMC      H 1448   0.448   2.032   0.889
  135DMC      H 1449   0.609   1.997   0.954
  135DMC      H 1450   0.580   2.147   0.858
  136DMC      C 1451   1.927   2.504   1.002
  136DMC      O 1452   2.049   2.432   0.980
  136DMC      C 1453   2.087   2.356   1.086
  136DMC      O 1454   2.028   2.347   1.192
  136DMC      O 1455   2.202   2.292   1.053
  136DMC      C 1456   2.253   2.209   1.156
  136DMC      H 1457   1.938   2.574   1.086
  136DMC      H 1458   1.905   2.562   0.912
  136DMC      H 1459   1.844   2.435   1.020
  136DMC      H 1460   2.347   2.163   1.120
  136DMC      H 1461   2.277   2.269   1.245
  136DMC      H 1462   2.183   2.130   1.180
  137DMC      C 1463   1.299   3.849   2.354
  137DMC      O 1464   1.275   3.718   2.409
  137DMC      C 1465   1.321   3.618   2.331
  137DMC      O 1466   1.377   3.630   2.223
  137DMC      O 1467   1.294   3.500   2.394
  137DMC      C 1468   1.337   3.385   2.322
  137DMC      H 1469   1.247   3.860   2.258
  137DMC      H 1470   1.258   3.923   2.424
  137DMC      H 1471   1.405   3.867   2.342
  137DMC      H 1472   1.310   3.296   2.380
  137DMC      H 1473   1.286   3.379   2.225
  137DMC      H 1474   1.445   3.387   2.309
  138DMC      C 1475   0.543   3.838   3.240
  138DMC      O 1476   0.541   3.705   3.188
  138DMC      C 1477   0.436   3.631   3.231
  138DMC      O 1478   0.348   3.669   3.307
  138DMC      O 1479   0.445   3.508   3.175
  138DMC      C 1480   0.340   3.420   3.212
  138DMC      H 1481   0.550   3.837   3.350
  138DMC      H 1482   0.630   3.890   3.200
  138DMC      H 1483   0.453   3.893   3.209
  138DMC      H 1484   0.357   3.323   3.162
  138DMC      H 1485   0.341   3.402   3.320
  138DMC      H 1486   0.244   3.459   3.180
  139DMC      C 1487   3.037   1.851   2.964
  139DMC      O 1488   3.093   1.721   2.942
  139DMC      C 1489   3.124   1.696   2.812
  139DMC      O 1490   3.107   1.772   2.718
  139DMC      O 1491   3.176   1.571   2.804
  139DMC      C 1492   3.212   1.532   2.673
  139DMC      H 1493   2.943   1.863   2.909
  139DMC      H 1494   3.017   1.862   3.070
  139DMC      H 1495   3.108   1.929   2.934
  139DMC      H 1496   3.252   1.429   2.677
  139DMC      H 1497   3.124   1.530   2.607
  139DMC      H 1498   3.289   1.598   2.633
  140DMC      C 1499   3.180   1.401   1.603
  140DMC      O 1500   3.092   1.467   1.510
  140DMC      C 1501   3.029   1.383   1.425
  140DMC      O 1502   3.042   1.261   1.422
  140DMC      O 1503   2.950   1.456   1.344
  140DMC      C 1504   2.878   1.379   1.249
  140DMC      H 1505   3.260   1.348   1.550
  140DMC      H 1506   3.226   1.477   1.667
  140DMC      H 1507   3.124   1.332   1.666
  140DMC      H 1508   2.817   1.447   1.188
  140DMC      H 1509   2.947   1.326   1.182
  140DMC      H 1510   2.811   1.309   1.299
  141DMC      C 1511   0.905   0.727   3.875
  141DMC      O 1512   0.997   0.647   3.801
  141DMC      C 1513   1.116   0.627   3.863
  141DMC      O 1514   1.147   0.672   3.972
  141DMC      O 1515   1.194   0.550   3.783
  141DMC      C 1516   1.322   0.522   3.837
  141DMC      H 1517   0.946   0.827   3.893
  141DMC      H 1518   0.813   0.737   3.817
  141DMC      H 1519   0.881   0.679   3.970
  141DMC      H 1520   1.377   0.460   3.765
  141DMC      H 1521   1.378   0.615   3.852
  141DMC      H 1522   1.313   0.467   3.931
  142DMC      C 1523   0.277   1.996   3.405
  142DMC      O 1524   0.258   1.860   3.446
  142DMC      C 1525   0.353   1.775   3.401
  142DMC      O 1526   0.448   1.805   3.330
  142DMC      O 1527   0.324   1.650   3.446
  142DMC      C 1528   0.417   1.551   3.405
  142DMC      H 1529   0.274   2.004   3.295
  142DMC      H 1530   0.196   2.056   3.446
  142DMC      H 1531   0.372   2.034   3.443
  142DMC      H 1532   0.384   1.455   3.447
  142DMC      H 1533   0.418   1.542   3.296
  142DMC      H 1534   0.517   1.573   3.444
  143DMC      C 1535   3.153   3.301   1.058
  143DMC      O 1536   3.163   3.207   1.166
  143DMC      C 1537   3.283   3.206   1.227
  143DMC      O 1538   3.379   3.276   1.197
  143DMC      O 1539   3.280   3.114   1.326
  143DMC      C 1540   3.401   3.103   1.399
  143DMC      H 1541   3.225   3.277   0.979
  143DMC      H 1542   3.052   3.294   1.016
  143DMC      H 1543   3.168   3.403   1.094
  143DMC      H 1544   3.389   3.025   1.476
  143DMC      H 1545   3.483   3.071   1.332
  143DMC      H 1546   3.426   3.197   1.448
  144DMC      C 1547   2.471   0.203   0.423
  144DMC      O 1548   2.397   0.262   0.315
  144DMC      C 1549   2.363   0.391   0.336
  144DMC      O 1550   2.388   0.457   0.437
  144DMC      O 1551   2.294   0.436   0.228
  144DMC      C 1552   2.251   0.571   0.238
  144DMC      H 1553   2.411   0.203   0.515
  144DMC      H 1554   2.494   0.100   0.396
  144DMC      H 1555   2.565   0.257   0.439
  144DMC      H 1556   2.197   0.596   0.146
  144DMC      H 1557   2.183   0.583   0.323
  144DMC      H 1558   2.337   0.637   0.247
  145DMC      C 1559   1.824   2.371   0.711
  145DMC      O 1560   1.842   2.241   0.654
  145DMC      C 1561   1.881   2.244   0.524
  145DMC      O 1562   1.901   2.344   0.457
  145DMC      O 1563   1.894   2.115   0.481
  145DMC      C 1564   1.935   2.104   0.346
  145DMC      H 1565   1.746   2.427   0.658
  145DMC      H 1566   1.793   2.359   0.815
  145DMC      H 1567   1.918   2.427   0.710
  145DMC      H 1568   1.942   1.997   0.321
  145DMC      H 1569   1.860   2.149   0.279
  145DMC      H 1570   2.033   2.150   0.331
  146DMC      C 1571   2.736   0.283   0.667
  146DMC      O 1572   2.806   0.233   0.553
  146DMC      C 1573   2.811   0.320   0.449
  146DMC      O 1574   2.762   0.432   0.447
  146DMC      O 1575   2.880   0.261   0.347
  146DMC      C 1576   2.892   0.343   0.232
  146DMC      H 1577   2.632   0.306   0.642
  146DMC      H 1578   2.738   0.206   0.745
  146DMC      H 1579   2.786   0.372   0.706
  146DMC      H 1580   2.947   0.286   0.156
  146DMC      H 1581   2.793   0.366   0.191
  146DMC      H 1582   2.947   0.434   0.255
  147DMC      C 1583   2.032   1.546   3.129
  147DMC      O 1584   2.018   1.407   3.161
  147DMC      C 1585   2.090   1.325   3.080
  147DMC      O 1586   2.161   1.361   2.987
  147DMC      O 1587   2.069   1.197   3.120
  147DMC      C 1588   2.139   1.101   3.043
  147DMC      H 1589   1.996   1.566   3.027
  147DMC      H 1590   1.970   1.603   3.199
  147DMC      H 1591   2.135   1.578   3.140
  147DMC      H 1592   2.115   1.001   3.083
  147DMC      H 1593   2.106   1.104   2.938
  147DMC      H 1594   2.247   1.116   3.051
  148DMC      C 1595   1.146   1.955   3.282
  148DMC      O 1596   1.227   1.838   3.299
  148DMC      C 1597   1.352   1.850   3.250
  148DMC      O 1598   1.398   1.949   3.195
  148DMC      O 1599   1.418   1.733   3.271
  148DMC      C 1600   1.552   1.733   3.224
  148DMC      H 1601   1.134   1.979   3.176
  148DMC      H 1602   1.047   1.935   3.325
  148DMC      H 1603   1.190   2.040   3.335
  148DMC      H 1604   1.596   1.635   3.245
  148DMC      H 1605   1.554   1.748   3.115
  148DMC      H 1606   1.611   1.809   3.275
  149DMC      C 1607   2.209   2.103   2.236
  149DMC      O 1608   2.078   2.119   2.180
  149DMC      C 1609   2.079   2.164   2.052
  149DMC      O 1610   2.178   2.190   1.986
  149DMC      O 1611   1.950   2.175   2.010
  149DMC      C 1612   1.937   2.221   1.877
  149DMC      H 1613   2.262   2.198   2.238
  149DMC      H 1614   2.198   2.066   2.338
  149DMC      H 1615   2.266   2.029   2.179
  149DMC      H 1616   1.830   2.228   1.853
  149DMC      H 1617   1.980   2.322   1.866
  149DMC      H 1618   1.984   2.152   1.807
  150DMC      C 1619   1.104   1.260   2.474
  150DMC      O 1620   1.006   1.155   2.465
  150DMC      C 1621   1.060   1.032   2.451
  150DMC      O 1622   1.179   1.005   2.445
  150DMC      O 1623   0.958   0.942   2.445
  150DMC      C 1624   1.001   0.807   2.430
  150DMC      H 1625   1.164   1.264   2.382
  150DMC      H 1626   1.051   1.355   2.485
  150DMC      H 1627   1.168   1.246   2.561
  150DMC      H 1628   0.912   0.743   2.425
  150DMC      H 1629   1.056   0.795   2.336
  150DMC      H 1630   1.061   0.776   2.515
  151DMC      C 1631   1.707   0.799   3.193
  151DMC      O 1632   1.751   0.900   3.101
  151DMC      C 1633   1.743   1.025   3.151
  151DMC      O 1634   1.703   1.056   3.262
  151DMC      O 1635   1.787   1.111   3.056
  151DMC      C 1636   1.784   1.248   3.095
  151DMC      H 1637   1.602   0.813   3.219
  151DMC      H 1638   1.717   0.701   3.144
  151DMC      H 1639   1.769   0.798   3.283
  151DMC      H 1640   1.821   1.309   3.012
  151DMC      H 1641   1.681   1.279   3.117
  151DMC      H 1642   1.849   1.264   3.181
  152DMC      C 1643   0.808   1.527   3.901
  152DMC      O 1644   0.899   1.429   3.847
  152DMC      C 1645   0.978   1.477   3.748
  152DMC      O 1646   0.976   1.591   3.704
  152DMC      O 1647   1.059   1.377   3.707
  152DMC      C 1648   1.148   1.414   3.602
  152DMC      H 1649   0.740   1.562   3.823
  152DMC      H 1650   0.750   1.479   3.980
  152DMC      H 1651   0.863   1.610   3.945
  152DMC      H 1652   1.208   1.326   3.575
  152DMC      H 1653   1.091   1.445   3.513
  152DMC      H 1654   1.215   1.494   3.635
  153DMC      C 1655   1.589   1.935   3.890
  153DMC      O 1656   1.625   1.833   3.797
  153DMC      C 1657   1.698   1.732   3.851
  153DMC      O 1658   1.733   1.724   3.968
  153DMC      O 1659   1.726   1.642   3.753
  153DMC      C 1660   1.802   1.531   3.798
  153DMC      H 1661   1.678   1.983   3.932
  153DMC      H 1662   1.531   2.011   3.837
  153DMC      H 1663   1.527   1.894   3.970
  153DMC      H 1664   1.820   1.465   3.712
  153DMC      H 1665   1.900   1.564   3.836
  153DMC      H 1666   1.748   1.475   3.874
  154DMC      C 1667   2.719   1.273   2.685
  154DMC      O 1668   2.803   1.283   2.801
  154DMC      C 1669   2.737   1.315   2.914
  154DMC      O 1670   2.617   1.336   2.923
  154DMC      O 1671   2.827   1.321   3.016
  154DMC      C 1672   2.769   1.355   3.141
  154DMC      H 1673   2.671   1.368   2.664
  154DMC      H 1674   2.782   1.246   2.600
  154DMC      H 1675   2.644   1.194   2.699
  154DMC      H 1676   2.850   1.358   3.216
  154DMC      H 1677   2.723   1.455   3.137
  154DMC      H 1678   2.696   1.280   3.172
  155DMC      C 1679   1.255   3.771   1.665
  155DMC      O 1680   1.183   3.652   1.699
  155DMC      C 1681   1.112   3.662   1.814
  155DMC      O 1682   1.108   3.760   1.887
  155DMC      O 1683   1.048   3.544   1.835
  155DMC      C 1684   0.971   3.541   1.953
  155DMC      H 1685   1.329   3.795   1.742
  155DMC      H 1686   1.308   3.753   1.570
  155DMC      H 1687   1.187   3.855   1.650
  155DMC      H 1688   0.924   3.442   1.962
  155DMC      H 1689   1.035   3.556   2.042
  155DMC      H 1690   0.892   3.616   1.950
  156DMC      C 1691   0.534   2.141   2.605
  156DMC      O 1692   0.653   2.220   2.590
  156DMC      C 1693   0.755   2.181   2.670
  156DMC      O 1694   0.752   2.088   2.749
  156DMC      O 1695   0.861   2.262   2.646
  156DMC      C 1696   0.975   2.232   2.724
  156DMC      H 1697   0.495   2.148   2.707
  156DMC      H 1698   0.458   2.180   2.537
  156DMC      H 1699   0.553   2.037   2.578
  156DMC      H 1700   1.054   2.303   2.699
  156DMC      H 1701   0.953   2.243   2.832
  156DMC      H 1702   1.011   2.131   2.702
  157DMC      C 1703   1.910   3.781   2.512
  157DMC      O 1704   1.817   3.876   2.564
  157DMC      C 1705   1.694   3.825   2.588
  157DMC      O 1706   1.659   3.709   2.568
  157DMC      O 1707   1.615   3.924   2.638
  157DMC      C 1708   1.483   3.883   2.667
  157DMC      H 1709   1.875   3.742   2.415
  157DMC      H 1710   2.006   3.831   2.496
  157DMC      H 1711   1.925   3.699   2.582
  157DMC      H 1712   1.428   3.970   2.705
  157DMC      H 1713   1.432   3.849   2.576
  157DMC      H 1714   1.482   3.805   2.743
  158DMC      C 1715   2.485   0.725   2.877
  158DMC      O 1716   2.556   0.615   2.935
  158DMC      C 1717   2.509   0.494   2.896
  158DMC      O 1718   2.415   0.474   2.821
  158DMC      O 1719   2.584   0.398   2.956
  158DMC      C 1720   2.545   0.265   2.924
  158DMC      H 1721   2.380   0.724   2.908
  158DMC      H 1722   2.531   0.818   2.914
  158DMC      H 1723   2.493   0.724   2.768
  158DMC      H 1724   2.611   0.196   2.978
  158DMC      H 1725   2.442   0.247   2.957
  158DMC      H 1726   2.555   0.247   2.817
  159DMC      C 1727   1.458   1.942   2.777
  159DMC      O 1728   1.457   2.055   2.689
  159DMC      C 1729   1.345   2.065   2.614
  159DMC      O 1730   1.250   1.988   2.617
  159DMC      O 1731   1.356   2.176   2.536
  159DMC      C 1732   1.244   2.198   2.452
  159DMC      H 1733   1.452   1.849   2.721
  159DMC      H 1734   1.552   1.943   2.833
  159DMC      H 1735   1.376   1.949   2.849
  159DMC      H 1736   1.263   2.288   2.392
  159DMC      H 1737   1.231   2.113   2.382
  159DMC      H 1738   1.154   2.214   2.511
  160DMC      C 1739   1.578   1.245   3.871
  160DMC      O 1740   1.573   1.367   3.796
  160DMC      C 1741   1.535   1.350   3.667
  160DMC      O 1742   1.508   1.244   3.614
  160DMC      O 1743   1.533   1.472   3.607
  160DMC      C 1744   1.496   1.469   3.471
  160DMC      H 1745   1.652   1.176   3.828
  160DMC      H 1746   1.609   1.269   3.973
  160DMC      H 1747   1.480   1.198   3.875
  160DMC      H 1748   1.498   1.571   3.432
  160DMC      H 1749   1.567   1.409   3.413
  160DMC      H 1750   1.394   1.430   3.460
  161DMC      C 1751   1.663   2.644   2.165
  161DMC      O 1752   1.719   2.712   2.051
  161DMC      C 1753   1.815   2.642   1.987
  161DMC      O 1754   1.856   2.531   2.018
  161DMC      O 1755   1.859   2.717   1.882
  161DMC      C 1756   1.961   2.654   1.806
  161DMC      H 1757   1.741   2.625   2.240
  161DMC      H 1758   1.587   2.708   2.209
  161DMC      H 1759   1.616   2.551   2.134
  161DMC      H 1760   1.990   2.722   1.725
  161DMC      H 1761   2.050   2.636   1.869
  161DMC      H 1762   1.925   2.561   1.763
  162DMC      C 1763   3.208   0.587   0.875
  162DMC      O 1764   3.332   0.655   0.896
  162DMC      C 1765   3.441   0.575   0.882
  162DMC      O 1766   3.440   0.456   0.855
  162DMC      O 1767   3.552   0.651   0.904
  162DMC      C 1768   3.674   0.579   0.893
  162DMC      H 1769   3.195   0.507   0.948
  162DMC      H 1770   3.127   0.659   0.888
  162DMC      H 1771   3.203   0.548   0.773
  162DMC      H 1772   3.757   0.648   0.913
  162DMC      H 1773   3.678   0.498   0.967
  162DMC      H 1774   3.685   0.539   0.792
  163DMC      C 1775   0.589   2.769   2.430
  163DMC      O 1776   0.717   2.813   2.382
  163DMC      C 1777   0.820   2.776   2.463
  163DMC      O 1778   0.811   2.713   2.567
  163DMC      O 1779   0.935   2.823   2.407
  163DMC      C 1780   1.051   2.791   2.482
  163DMC      H 1781   0.567   2.813   2.527
  163DMC      H 1782   0.513   2.803   2.358
  163DMC      H 1783   0.585   2.660   2.435
  163DMC      H 1784   1.138   2.834   2.430
  163DMC      H 1785   1.046   2.837   2.582
  163DMC      H 1786   1.064   2.683   2.490
  164DMC      C 1787   2.671   0.206   2.087
  164DMC      O 1788   2.689   0.257   1.954
  164DMC      C 1789   2.793   0.200   1.888
  164DMC      O 1790   2.868   0.115   1.932
  164DMC      O 1791   2.799   0.256   1.764
  164DMC      C 1792   2.905   0.206   1.684
  164DMC      H 1793   2.759   0.226   2.149
  164DMC      H 1794   2.585   0.257   2.132
  164DMC      H 1795   2.650   0.099   2.085
  164DMC      H 1796   2.902   0.257   1.588
  164DMC      H 1797   3.002   0.227   1.731
  164DMC      H 1798   2.893   0.099   1.667
  165DMC      C 1799   3.258   1.128   2.721
  165DMC      O 1800   3.340   1.165   2.832
  165DMC      C 1801   3.417   1.063   2.878
  165DMC      O 1802   3.420   0.950   2.834
  165DMC      O 1803   3.491   1.110   2.982
  165DMC      C 1804   3.576   1.013   3.040
  165DMC      H 1805   3.188   1.049   2.749
  165DMC      H 1806   3.200   1.216   2.691
  165DMC      H 1807   3.319   1.097   2.636
  165DMC      H 1808   3.630   1.060   3.124
  165DMC      H 1809   3.518   0.929   3.081
  165DMC      H 1810   3.649   0.978   2.967
  166DMC      C 1811   2.797   0.605   3.082
  166DMC      O 1812   2.918   0.551   3.027
  166DMC      C 1813   2.970   0.450   3.100
  166DMC      O 1814   2.924   0.405   3.204
  166DMC      O 1815   3.084   0.408   3.039
  166DMC      C 1816   3.149   0.301   3.106
  166DMC      H 1817   2.814   0.647   3.181
  166DMC      H 1818   2.762   0.685   3.016
  166DMC      H 1819   2.719   0.529   3.086
  166DMC      H 1820   3.239   0.275   3.049
  166DMC      H 1821   3.180   0.333   3.207
  166DMC      H 1822   3.084   0.213   3.111
  167DMC      C 1823   0.502   0.894   3.716
  167DMC      O 1824   0.580   0.950   3.609
  167DMC      C 1825   0.524   1.060   3.554
  167DMC      O 1826   0.418   1.111   3.586
  167DMC      O 1827   0.606   1.104   3.455
  167DMC      C 1828   0.559   1.219   3.388
  167DMC      H 1829   0.404   0.862   3.680
  167DMC      H 1830   0.555   0.806   3.754
  167DMC      H 1831   0.491   0.965   3.797
  167DMC      H 1832   0.632   1.246   3.310
  167DMC      H 1833   0.463   1.199   3.338
  167DMC      H 1834   0.550   1.303   3.457
  168DMC      C 1835   3.151   1.207   3.477
  168DMC      O 1836   3.017   1.204   3.426
  168DMC      C 1837   2.927   1.267   3.505
  168DMC      O 1838   2.951   1.321   3.612
  168DMC      O 1839   2.805   1.258   3.447
  168DMC      C 1840   2.701   1.319   3.521
  168DMC      H 1841   3.157   1.156   3.573
  168DMC      H 1842   3.216   1.155   3.406
  168DMC      H 1843   3.186   1.310   3.486
  168DMC      H 1844   2.607   1.306   3.466
  168DMC      H 1845   2.690   1.271   3.619
  168DMC      H 1846   2.720   1.426   3.532
  169DMC      C 1847   0.812   1.513   1.151
  169DMC      O 1848   0.711   1.429   1.209
  169DMC      C 1849   0.620   1.384   1.119
  169DMC      O 1850   0.617   1.411   1.000
  169DMC      O 1851   0.530   1.306   1.185
  169DMC      C 1852   0.428   1.253   1.102
  169DMC      H 1853   0.767   1.603   1.108
  169DMC      H 1854   0.880   1.544   1.231
  169DMC      H 1855   0.869   1.459   1.076
  169DMC      H 1856   0.362   1.192   1.165
  169DMC      H 1857   0.369   1.334   1.058
  169DMC      H 1858   0.471   1.189   1.025
  170DMC      C 1859   1.291   1.283   3.027
  170DMC      O 1860   1.231   1.366   3.128
  170DMC      C 1861   1.098   1.344   3.144
  170DMC      O 1862   1.031   1.263   3.082
  170DMC      O 1863   1.054   1.427   3.242
  170DMC      C 1864   0.915   1.414   3.270
  170DMC      H 1865   1.245   1.302   2.929
  170DMC      H 1866   1.397   1.308   3.021
  170DMC      H 1867   1.281   1.177   3.053
  170DMC      H 1868   0.889   1.486   3.349
  170DMC      H 1869   0.856   1.439   3.180
  170DMC      H 1870   0.892   1.314   3.305
  171EMC      C 1871   3.234   0.335   1.800
  171EMC      C 1872   3.230   0.472   1.862
  171EMC      O 1873   3.298   0.567   1.778
  171EMC      C 1874   3.432   0.576   1.798
  171EMC      O 1875   3.498   0.513   1.878
  171EMC      O 1876   3.480   0.668   1.712
  171EMC      C 1877   3.621   0.689   1.721
  171EMC      H 1878   3.191   0.336   1.699
  171EMC      H 1879   3.177   0.263   1.861
  171EMC      H 1880   3.336   0.298   1.791
  171EMC      H 1881   3.126   0.507   1.871
  171EMC      H 1882   3.271   0.472   1.964
  171EMC      H 1883   3.649   0.725   1.821
  171EMC      H 1884   3.650   0.765   1.648
  171EMC      H 1885   3.675   0.597   1.698
  172EMC      C 1886   2.402   1.969   1.437
  172EMC      C 1887   2.510   1.908   1.350
  172EMC      O 1888   2.472   1.777   1.307
  172EMC      C 1889   2.503   1.677   1.393
  172EMC      O 1890   2.560   1.688   1.500
  172EMC      O 1891   2.461   1.560   1.338
  172EMC      C 1892   2.488   1.445   1.418
  172EMC      H 1893   2.306   1.970   1.384
  172EMC      H 1894   2.428   2.072   1.465
  172EMC      H 1895   2.387   1.911   1.528
  172EMC      H 1896   2.523   1.969   1.259
  172EMC      H 1897   2.607   1.908   1.401
  172EMC      H 1898   2.596   1.433   1.433
  172EMC      H 1899   2.450   1.357   1.365
  172EMC      H 1900   2.436   1.452   1.514
  173EMC      C 1901   0.861   0.901   3.336
  173EMC      C 1902   0.856   1.030   3.258
  173EMC      O 1903   0.987   1.068   3.214
  173EMC      C 1904   1.059   1.140   3.304
  173EMC      O 1905   1.023   1.175   3.414
  173EMC      O 1906   1.180   1.167   3.248
  173EMC      C 1907   1.267   1.243   3.332
  173EMC      H 1908   0.908   0.822   3.276
  173EMC      H 1909   0.760   0.869   3.364
  173EMC      H 1910   0.920   0.912   3.426
  173EMC      H 1911   0.795   1.017   3.167
  173EMC      H 1912   0.808   1.111   3.315
  173EMC      H 1913   1.223   1.342   3.354
  173EMC      H 1914   1.360   1.260   3.277
  173EMC      H 1915   1.289   1.189   3.423
  174EMC      C 1916   1.805   2.238   2.689
  174EMC      C 1917   1.903   2.163   2.602
  174EMC      O 1918   1.848   2.039   2.558
  174EMC      C 1919   1.865   1.934   2.643
  174EMC      O 1920   1.922   1.937   2.750
  174EMC      O 1921   1.807   1.825   2.587
  174EMC      C 1922   1.817   1.707   2.666
  174EMC      H 1923   1.710   2.253   2.636
  174EMC      H 1924   1.846   2.336   2.718
  174EMC      H 1925   1.783   2.182   2.780
  174EMC      H 1926   1.925   2.222   2.511
  174EMC      H 1927   2.000   2.149   2.652
  174EMC      H 1928   1.923   1.680   2.681
  174EMC      H 1929   1.768   1.626   2.613
  174EMC      H 1930   1.767   1.721   2.763
  175EMC      C 1931   3.211   1.027   1.498
  175EMC      C 1932   3.236   1.028   1.648
  175EMC      O 1933   3.361   1.093   1.677
  175EMC      C 1934   3.470   1.012   1.673
  175EMC      O 1935   3.471   0.893   1.648
  175EMC      O 1936   3.578   1.087   1.703
  175EMC      C 1937   3.701   1.015   1.703
  175EMC      H 1938   3.215   1.129   1.458
  175EMC      H 1939   3.113   0.983   1.476
  175EMC      H 1940   3.288   0.970   1.446
  175EMC      H 1941   3.157   1.087   1.698
  175EMC      H 1942   3.232   0.927   1.690
  175EMC      H 1943   3.700   0.935   1.779
  175EMC      H 1944   3.782   1.084   1.728
  175EMC      H 1945   3.722   0.974   1.604
  176EMC      C 1946   2.773   3.646   0.237
  176EMC      C 1947   2.757   3.524   0.325
  176EMC      O 1948   2.885   3.477   0.369
  176EMC      C 1949   2.948   3.392   0.284
  176EMC      O 1950   2.905   3.353   0.177
  176EMC      O 1951   3.066   3.357   0.340
  176EMC      C 1952   3.143   3.267   0.261
  176EMC      H 1953   2.829   3.725   0.290
  176EMC      H 1954   2.675   3.686   0.208
  176EMC      H 1955   2.829   3.623   0.147
  176EMC      H 1956   2.700   3.551   0.416
  176EMC      H 1957   2.700   3.445   0.274
  176EMC      H 1958   3.089   3.172   0.246
  176EMC      H 1959   3.236   3.245   0.315
  176EMC      H 1960   3.169   3.312   0.165
  177EMC      C 1961   3.239   0.810   3.173
  177EMC      C 1962   3.161   0.746   3.061
  177EMC      O 1963   3.092   0.845   2.984
  177EMC      C 1964   2.970   0.881   3.032
  177EMC      O 1965   2.915   0.836   3.131
  177EMC      O 1966   2.919   0.975   2.949
  177EMC      C 1967   2.789   1.021   2.986
  177EMC      H 1968   3.308   0.886   3.134
  177EMC      H 1969   3.297   0.735   3.229
  177EMC      H 1970   3.173   0.862   3.243
  177EMC      H 1971   3.230   0.695   2.992
  177EMC      H 1972   3.092   0.669   3.099
  177EMC      H 1973   2.716   0.939   2.985
  177EMC      H 1974   2.757   1.096   2.913
  177EMC      H 1975   2.792   1.068   3.085
  178EMC      C 1976   0.953   2.521   2.902
  178EMC      C 1977   0.842   2.620   2.928
  178EMC      O 1978   0.716   2.553   2.934
  178EMC      C 1979   0.653   2.535   2.815
  178EMC      O 1980   0.694   2.571   2.706
  178EMC      O 1981   0.537   2.470   2.838
  178EMC      C 1982   0.460   2.445   2.720
  178EMC      H 1983   0.954   2.442   2.978
  178EMC      H 1984   1.051   2.572   2.903
  178EMC      H 1985   0.941   2.473   2.805
  178EMC      H 1986   0.857   2.668   3.026
  178EMC      H 1987   0.841   2.701   2.854
  178EMC      H 1988   0.432   2.539   2.671
  178EMC      H 1989   0.368   2.393   2.750
  178EMC      H 1990   0.515   2.381   2.652
  179EMC      C 1991   0.350   3.422   1.304
  179EMC      C 1992   0.388   3.296   1.230
  179EMC      O 1993   0.420   3.325   1.094
  179EMC      C 1994   0.314   3.326   1.009
  179EMC      O 1995   0.198   3.305   1.038
  179EMC      O 1996   0.360   3.355   0.885
  179EMC      C 1997   0.259   3.359   0.784
  179EMC      H 1998   0.430   3.497   1.296
  179EMC      H 1999   0.331   3.401   1.410
  179EMC      H 2000   0.260   3.467   1.262
  179EMC      H 2001   0.479   3.253   1.276
  179EMC      H 2002   0.310   3.219   1.239
  179EMC      H 2003   0.209   3.262   0.775
  179EMC      H 2004   0.306   3.383   0.689
  179EMC      H 2005   0.186   3.437   0.807
  180EMC      C 2006   3.047   2.602   3.549
  180EMC      C 2007   3.191   2.601   3.503
  180EMC      O 2008   3.198   2.611   3.361
  180EMC      C 2009   3.190   2.493   3.294
  180EMC      O 2010   3.178   2.383   3.343
  180EMC      O 2011   3.198   2.520   3.161
  180EMC      C 2012   3.191   2.405   3.078
  180EMC      H 2013   2.995   2.692   3.513
  180EMC      H 2014   3.041   2.601   3.659
  180EMC      H 2015   2.992   2.516   3.511
  180EMC      H 2016   3.244   2.689   3.544
  180EMC      H 2017   3.244   2.513   3.541
  180EMC      H 2018   3.275   2.336   3.099
  180EMC      H 2019   3.199   2.437   2.974
  180EMC      H 2020   3.096   2.354   3.091
  181EMC      C 2021   3.719   2.282   1.579
  181EMC      C 2022   3.772   2.398   1.662
  181EMC      O 2023   3.668   2.494   1.685
  181EMC      C 2024   3.653   2.587   1.588
  181EMC      O 2025   3.718   2.596   1.485
  181EMC      O 2026   3.552   2.670   1.625
  181EMC      C 2027   3.525   2.774   1.531
  181EMC      H 2028   3.632   2.236   1.629
  181EMC      H 2029   3.796   2.205   1.567
  181EMC      H 2030   3.686   2.315   1.481
  181EMC      H 2031   3.804   2.361   1.760
  181EMC      H 2032   3.860   2.444   1.615
  181EMC      H 2033   3.612   2.839   1.519
  181EMC      H 2034   3.442   2.834   1.571
  181EMC      H 2035   3.494   2.732   1.435
  182EMC      C 2036   2.958   1.202   3.870
  182EMC      C 2037   2.860   1.088   3.880
  182EMC      O 2038   2.920   0.975   3.945
  182EMC      C 2039   2.989   0.892   3.863
  182EMC      O 2040   3.004   0.903   3.743
  182EMC      O 2041   3.039   0.791   3.940
  182EMC      C 2042   3.115   0.695   3.867
  182EMC      H 2043   2.996   1.229   3.970
  182EMC      H 2044   2.910   1.291   3.826
  182EMC      H 2045   3.044   1.176   3.810
  182EMC      H 2046   2.774   1.118   3.941
  182EMC      H 2047   2.820   1.061   3.781
  182EMC      H 2048   3.052   0.645   3.791
  182EMC      H 2049   3.151   0.619   3.937
  182EMC      H 2050   3.202   0.742   3.820
  183EMC      C 2051   0.917   0.659   1.626
  183EMC      C 2052   0.795   0.635   1.540
  183EMC      O 2053   0.753   0.756   1.478
  183EMC      C 2054   0.670   0.834   1.552
  183EMC      O 2055   0.629   0.809   1.663
  183EMC      O 2056   0.640   0.944   1.479
  183EMC      C 2057   0.552   1.035   1.545
  183EMC      H 2058   0.998   0.703   1.566
  183EMC      H 2059   0.953   0.564   1.669
  183EMC      H 2060   0.896   0.728   1.707
  183EMC      H 2061   0.820   0.564   1.459
  183EMC      H 2062   0.714   0.589   1.598
  183EMC      H 2063   0.455   0.987   1.566
  183EMC      H 2064   0.534   1.120   1.478
  183EMC      H 2065   0.597   1.073   1.637
  184EMC      C 2066   0.172   0.321   2.783
  184EMC      C 2067   0.299   0.277   2.850
  184EMC      O 2068   0.271   0.184   2.955
  184EMC      C 2069   0.243   0.241   3.076
  184EMC      O 2070   0.241   0.359   3.101
  184EMC      O 2071   0.219   0.140   3.164
  184EMC      C 2072   0.188   0.185   3.296
  184EMC      H 2073   0.115   0.235   2.746
  184EMC      H 2074   0.193   0.387   2.698
  184EMC      H 2075   0.107   0.375   2.852
  184EMC      H 2076   0.363   0.224   2.777
  184EMC      H 2077   0.358   0.362   2.886
  184EMC      H 2078   0.273   0.242   3.338
  184EMC      H 2079   0.171   0.097   3.358
  184EMC      H 2080   0.098   0.246   3.296
  185EMC      C 2081   3.334   2.526   0.642
  185EMC      C 2082   3.323   2.613   0.765
  185EMC      O 2083   3.220   2.565   0.852
  185EMC      C 2084   3.096   2.611   0.825
  185EMC      O 2085   3.065   2.688   0.736
  185EMC      O 2086   3.011   2.557   0.916
  185EMC      C 2087   2.875   2.598   0.900
  185EMC      H 2088   3.350   2.421   0.670
  185EMC      H 2089   3.417   2.558   0.578
  185EMC      H 2090   3.242   2.528   0.584
  185EMC      H 2091   3.418   2.608   0.822
  185EMC      H 2092   3.308   2.718   0.738
  185EMC      H 2093   2.865   2.706   0.912
  185EMC      H 2094   2.815   2.549   0.977
  185EMC      H 2095   2.837   2.566   0.802
  186EMC      C 2096   1.109   3.413   3.332
  186EMC      C 2097   1.183   3.295   3.272
  186EMC      O 2098   1.091   3.199   3.220
  186EMC      C 2099   1.045   3.108   3.311
  186EMC      O 2100   1.076   3.101   3.428
  186EMC      O 2101   0.960   3.025   3.246
  186EMC      C 2102   0.904   2.923   3.329
  186EMC      H 2103   1.042   3.458   3.257
  186EMC      H 2104   1.179   3.490   3.366
  186EMC      H 2105   1.047   3.383   3.416
  186EMC      H 2106   1.245   3.329   3.187
  186EMC      H 2107   1.252   3.250   3.345
  186EMC      H 2108   0.983   2.858   3.369
  186EMC      H 2109   0.837   2.862   3.268
  186EMC      H 2110   0.846   2.967   3.410
  187EMC      C 2111   1.649   1.472   1.113
  187EMC      C 2112   1.579   1.460   0.979
  187EMC      O 2113   1.674   1.452   0.873
  187EMC      C 2114   1.718   1.571   0.825
  187EMC      O 2115   1.684   1.681   0.863
  187EMC      O 2116   1.807   1.545   0.725
  187EMC      C 2117   1.861   1.662   0.665
  187EMC      H 2118   1.718   1.387   1.127
  187EMC      H 2119   1.577   1.472   1.195
  187EMC      H 2120   1.709   1.563   1.118
  187EMC      H 2121   1.519   1.368   0.977
  187EMC      H 2122   1.508   1.543   0.964
  187EMC      H 2123   1.782   1.723   0.618
  187EMC      H 2124   1.931   1.631   0.586
  187EMC      H 2125   1.917   1.721   0.738
  188EMC      C 2126   2.627   2.988   2.819
  188EMC      C 2127   2.490   2.929   2.841
  188EMC      O 2128   2.389   3.011   2.780
  188EMC      C 2129   2.343   3.113   2.856
  188EMC      O 2130   2.378   3.140   2.969
  188EMC      O 2131   2.250   3.180   2.784
  188EMC      C 2132   2.192   3.291   2.853
  188EMC      H 2133   2.646   3.001   2.712
  188EMC      H 2134   2.705   2.922   2.861
  188EMC      H 2135   2.636   3.086   2.866
  188EMC      H 2136   2.484   2.830   2.793
  188EMC      H 2137   2.469   2.913   2.948
  188EMC      H 2138   2.140   3.258   2.944
  188EMC      H 2139   2.119   3.338   2.786
  188EMC      H 2140   2.269   3.365   2.877
  189EMC      C 2141   1.985   0.980   1.506
  189EMC      C 2142   2.077   0.904   1.600
  189EMC      O 2143   2.197   0.978   1.624
  189EMC      C 2144   2.296   0.958   1.533
  189EMC      O 2145   2.291   0.886   1.436
  189EMC      O 2146   2.401   1.035   1.570
  189EMC      C 2147   2.514   1.025   1.483
  189EMC      H 2148   1.964   1.080   1.547
  189EMC      H 2149   1.891   0.926   1.493
  189EMC      H 2150   2.031   0.994   1.409
  189EMC      H 2151   2.027   0.890   1.698
  189EMC      H 2152   2.098   0.803   1.562
  189EMC      H 2153   2.552   0.921   1.480
  189EMC      H 2154   2.593   1.089   1.521
  189EMC      H 2155   2.488   1.058   1.382
  190EMC      C 2156   0.566   1.301   3.896
  190EMC      C 2157   0.580   1.263   3.750
  190EMC      O 2158   0.697   1.321   3.693
  190EMC      C 2159   0.682   1.447   3.645
  190EMC      O 2160   0.579   1.512   3.645
  190EMC      O 2161   0.801   1.487   3.596
  190EMC      C 2162   0.800   1.619   3.541
  190EMC      H 2163   0.656   1.272   3.952
  190EMC      H 2164   0.479   1.251   3.941
  190EMC      H 2165   0.554   1.409   3.907
  190EMC      H 2166   0.591   1.153   3.741
  190EMC      H 2167   0.489   1.289   3.693
  190EMC      H 2168   0.730   1.625   3.456
  190EMC      H 2169   0.900   1.641   3.504
  190EMC      H 2170   0.775   1.692   3.617
  191EMC      C 2171   2.936   1.709   1.664
  191EMC      C 2172   2.808   1.631   1.641
  191EMC      O 2173   2.791   1.530   1.740
  191EMC      C 2174   2.851   1.412   1.713
  191EMC      O 2175   2.917   1.385   1.615
  191EMC      O 2176   2.826   1.328   1.817
  191EMC      C 2177   2.884   1.198   1.802
  191EMC      H 2178   2.936   1.751   1.766
  191EMC      H 2179   2.946   1.790   1.592
  191EMC      H 2180   3.023   1.644   1.656
  191EMC      H 2181   2.721   1.699   1.649
  191EMC      H 2182   2.805   1.590   1.539
  191EMC      H 2183   2.844   1.148   1.712
  191EMC      H 2184   2.857   1.139   1.889
  191EMC      H 2185   2.993   1.205   1.797
  192EMC      C 2186   1.292   1.019   2.145
  192EMC      C 2187   1.290   0.873   2.105
  192EMC      O 2188   1.396   0.802   2.170
  192EMC      C 2189   1.516   0.804   2.106
  192EMC      O 2190   1.540   0.860   2.001
  192EMC      O 2191   1.604   0.733   2.180
  192EMC      C 2192   1.735   0.727   2.124
  192EMC      H 2193   1.285   1.028   2.254
  192EMC      H 2194   1.207   1.072   2.100
  192EMC      H 2195   1.384   1.067   2.114
  192EMC      H 2196   1.195   0.827   2.137
  192EMC      H 2197   1.295   0.862   1.995
  192EMC      H 2198   1.733   0.678   2.026
  192EMC      H 2199   1.798   0.667   2.191
  192EMC      H 2200   1.778   0.827   2.117
  193EMC      C 2201   1.374   0.368   3.182
  193EMC      C 2202   1.336   0.250   3.268
  193EMC      O 2203   1.202   0.265   3.317
  193EMC      C 2204   1.190   0.336   3.432
  193EMC      O 2205   1.281   0.386   3.496
  193EMC      O 2206   1.059   0.341   3.464
  193EMC      C 2207   1.031   0.413   3.585
  193EMC      H 2208   1.303   0.381   3.099
  193EMC      H 2209   1.475   0.354   3.139
  193EMC      H 2210   1.374   0.461   3.239
  193EMC      H 2211   1.338   0.158   3.207
  193EMC      H 2212   1.408   0.235   3.350
  193EMC      H 2213   1.081   0.365   3.671
  193EMC      H 2214   0.923   0.411   3.602
  193EMC      H 2215   1.062   0.517   3.575
  194EMC      C 2216   0.588   3.535   2.015
  194EMC      C 2217   0.551   3.395   2.059
  194EMC      O 2218   0.640   3.349   2.161
  194EMC      C 2219   0.754   3.290   2.117
  194EMC      O 2220   0.786   3.273   2.001
  194EMC      O 2221   0.826   3.252   2.225
  194EMC      C 2222   0.950   3.188   2.193
  194EMC      H 2223   0.590   3.603   2.101
  194EMC      H 2224   0.517   3.573   1.941
  194EMC      H 2225   0.688   3.537   1.971
  194EMC      H 2226   0.450   3.396   2.102
  194EMC      H 2227   0.548   3.325   1.974
  194EMC      H 2228   0.932   3.096   2.136
  194EMC      H 2229   1.000   3.162   2.286
  194EMC      H 2230   1.015   3.256   2.137
  195EMC      C 2231   1.097   2.300   2.151
  195EMC      C 2232   1.137   2.437   2.200
  195EMC      O 2233   1.101   2.537   2.105
  195EMC      C 2234   1.192   2.560   2.007
  195EMC      O 2235   1.300   2.504   1.994
  195EMC      O 2236   1.143   2.656   1.925
  195EMC      C 2237   1.230   2.691   1.817
  195EMC      H 2238   0.990   2.297   2.129
  195EMC      H 2239   1.119   2.224   2.227
  195EMC      H 2240   1.150   2.274   2.059
  195EMC      H 2241   1.083   2.461   2.293
  195EMC      H 2242   1.244   2.442   2.225
  195EMC      H 2243   1.325   2.731   1.855
  195EMC      H 2244   1.181   2.769   1.758
  195EMC      H 2245   1.247   2.605   1.752
  196EMC      C 2246   2.330   1.976   0.584
  196EMC      C 2247   2.304   2.090   0.489
  196EMC      O 2248   2.366   2.065   0.362
  196EMC      C 2249   2.496   2.104   0.352
  196EMC      O 2250   2.562   2.157   0.439
  196EMC      O 2251   2.539   2.073   0.227
  196EMC      C 2252   2.675   2.109   0.203
  196EMC      H 2253   2.296   1.881   0.541
  196EMC      H 2254   2.278   1.992   0.679
  196EMC      H 2255   2.437   1.965   0.605
  196EMC      H 2256   2.196   2.099   0.470
  196EMC      H 2257   2.336   2.186   0.531
  196EMC      H 2258   2.689   2.218   0.212
  196EMC      H 2259   2.699   2.080   0.100
  196EMC      H 2260   2.742   2.055   0.270
  197EMC      C 2261   0.971   0.368   2.407
  197EMC      C 2262   1.084   0.463   2.371
  197EMC      O 2263   1.200   0.390   2.330
  197EMC      C 2264   1.282   0.350   2.431
  197EMC      O 2265   1.266   0.372   2.549
  197EMC      O 2266   1.386   0.283   2.375
  197EMC      C 2267   1.482   0.236   2.470
  197EMC      H 2268   0.949   0.302   2.322
  197EMC      H 2269   0.880   0.424   2.433
  197EMC      H 2270   0.998   0.305   2.491
  197EMC      H 2271   1.054   0.526   2.286
  197EMC      H 2272   1.106   0.531   2.454
  197EMC      H 2273   1.527   0.320   2.525
  197EMC      H 2274   1.560   0.184   2.415
  197EMC      H 2275   1.435   0.165   2.539
  198EMC      C 2276   3.584   3.616   1.975
  198EMC      C 2277   3.724   3.600   2.030
  198EMC      O 2278   3.809   3.537   1.933
  198EMC      C 2279   3.807   3.401   1.935
  198EMC      O 2280   3.741   3.331   2.009
  198EMC      O 2281   3.891   3.358   1.838
  198EMC      C 2282   3.900   3.216   1.828
  198EMC      H 2283   3.586   3.672   1.881
  198EMC      H 2284   3.520   3.670   2.047
  198EMC      H 2285   3.538   3.520   1.954
  198EMC      H 2286   3.768   3.699   2.051
  198EMC      H 2287   3.724   3.546   2.126
  198EMC      H 2288   3.937   3.172   1.921
  198EMC      H 2289   3.970   3.191   1.748
  198EMC      H 2290   3.802   3.173   1.802
  199EMC      C 2291   1.189   2.050   0.679
  199EMC      C 2292   1.225   2.197   0.686
  199EMC      O 2293   1.358   2.214   0.735
  199EMC      C 2294   1.369   2.219   0.870
  199EMC      O 2295   1.279   2.210   0.951
  199EMC      O 2296   1.501   2.235   0.900
  199EMC      C 2297   1.528   2.242   1.040
  199EMC      H 2298   1.262   1.995   0.618
  199EMC      H 2299   1.089   2.036   0.635
  199EMC      H 2300   1.190   2.005   0.778
  199EMC      H 2301   1.223   2.240   0.584
  199EMC      H 2302   1.152   2.253   0.745
  199EMC      H 2303   1.476   2.328   1.086
  199EMC      H 2304   1.635   2.255   1.054
  199EMC      H 2305   1.498   2.149   1.090
  200EMC      C 2306   2.543   0.771   0.831
  200EMC      C 2307   2.692   0.787   0.849
  200EMC      O 2308   2.725   0.798   0.988
  200EMC      C 2309   2.718   0.924   1.039
  200EMC      O 2310   2.689   1.025   0.979
  200EMC      O 2311   2.752   0.917   1.170
  200EMC      C 2312   2.750   1.043   1.237
  200EMC      H 2313   2.506   0.685   0.888
  200EMC      H 2314   2.518   0.757   0.725
  200EMC      H 2315   2.489   0.859   0.867
  200EMC      H 2316   2.744   0.698   0.811
  200EMC      H 2317   2.731   0.872   0.791
  200EMC      H 2318   2.823   1.113   1.192
  200EMC      H 2319   2.778   1.027   1.342
  200EMC      H 2320   2.650   1.086   1.236
  201EMC      C 2321   0.779   2.643   1.457
  201EMC      C 2322   0.706   2.512   1.473
  201EMC      O 2323   0.788   2.416   1.539
  201EMC      C 2324   0.872   2.345   1.459
  201EMC      O 2325   0.881   2.355   1.338
  201EMC      O 2326   0.942   2.259   1.537
  201EMC      C 2327   1.034   2.177   1.464
  201EMC      H 2328   0.813   2.680   1.555
  201EMC      H 2329   0.714   2.719   1.412
  201EMC      H 2330   0.868   2.632   1.395
  201EMC      H 2331   0.617   2.526   1.536
  201EMC      H 2332   0.670   2.474   1.376
  201EMC      H 2333   0.981   2.113   1.392
  201EMC      H 2334   1.085   2.112   1.536
  201EMC      H 2335   1.109   2.239   1.414
  202EMC      C 2336   1.458   0.738   0.247
  202EMC      C 2337   1.378   0.655   0.346
  202EMC      O 2338   1.461   0.559   0.410
  202EMC      C 2339   1.476   0.441   0.344
  202EMC      O 2340   1.425   0.412   0.237
  202EMC      O 2341   1.557   0.362   0.418
  202EMC      C 2342   1.581   0.234   0.360
  202EMC      H 2343   1.543   0.786   0.298
  202EMC      H 2344   1.395   0.816   0.202
  202EMC      H 2345   1.499   0.676   0.168
  202EMC      H 2346   1.337   0.721   0.425
  202EMC      H 2347   1.291   0.608   0.297
  202EMC      H 2348   1.487   0.177   0.349
  202EMC      H 2349   1.647   0.178   0.427
  202EMC      H 2350   1.631   0.244   0.263
  203EMC      C 2351   0.993   1.560   1.781
  203EMC      C 2352   1.122   1.581   1.856
  203EMC      O 2353   1.125   1.710   1.918
  203EMC      C 2354   1.171   1.810   1.838
  203EMC      O 2355   1.208   1.800   1.723
  203EMC      O 2356   1.167   1.925   1.911
  203EMC      C 2357   1.213   2.040   1.840
  203EMC      H 2358   0.907   1.575   1.848
  203EMC      H 2359   0.988   1.459   1.739
  203EMC      H 2360   0.982   1.632   1.700
  203EMC      H 2361   1.131   1.506   1.937
  203EMC      H 2362   1.209   1.564   1.791
  203EMC      H 2363   1.318   2.028   1.809
  203EMC      H 2364   1.206   2.126   1.906
  203EMC      H 2365   1.149   2.059   1.753
  204EMC      C 2366   3.282   3.342   3.883
  204EMC      C 2367   3.238   3.215   3.813
  204EMC      O 2368   3.104   3.228   3.765
  204EMC      C 2369   3.007   3.197   3.855
  204EMC      O 2370   3.024   3.159   3.970
  204EMC      O 2371   2.887   3.214   3.795
  204EMC      C 2372   2.775   3.185   3.878
  204EMC      H 2373   3.272   3.428   3.815
  204EMC      H 2374   3.387   3.334   3.914
  204EMC      H 2375   3.221   3.362   3.970
  204EMC      H 2376   3.302   3.197   3.725
  204EMC      H 2377   3.250   3.127   3.879
  204EMC      H 2378   2.777   3.079   3.909
  204EMC      H 2379   2.684   3.202   3.820
  204EMC      H 2380   2.773   3.251   3.965
  205EMC      C 2381   2.700   0.503   1.877
  205EMC      C 2382   2.849   0.521   1.859
  205EMC      O 2383   2.918   0.398   1.883
  205EMC      C 2384   2.950   0.374   2.013
  205EMC      O 2385   2.926   0.447   2.108
  205EMC      O 2386   3.014   0.255   2.019
  205EMC      C 2387   3.055   0.217   2.151
  205EMC      H 2388   2.663   0.422   1.812
  205EMC      H 2389   2.646   0.595   1.852
  205EMC      H 2390   2.676   0.475   1.979
  205EMC      H 2391   2.871   0.550   1.755
  205EMC      H 2392   2.887   0.602   1.922
  205EMC      H 2393   3.125   0.290   2.192
  205EMC      H 2394   3.105   0.121   2.144
  205EMC      H 2395   2.967   0.206   2.216
  206EMC      C 2396   1.874   2.457   3.643
  206EMC      C 2397   1.844   2.592   3.582
  206EMC      O 2398   1.817   2.688   3.684
  206EMC      C 2399   1.688   2.694   3.726
  206EMC      O 2400   1.596   2.626   3.684
  206EMC      O 2401   1.679   2.789   3.821
  206EMC      C 2402   1.548   2.806   3.874
  206EMC      H 2403   1.957   2.464   3.715
  206EMC      H 2404   1.901   2.384   3.566
  206EMC      H 2405   1.788   2.418   3.698
  206EMC      H 2406   1.933   2.628   3.527
  206EMC      H 2407   1.763   2.585   3.509
  206EMC      H 2408   1.477   2.837   3.796
  206EMC      H 2409   1.551   2.885   3.950
  206EMC      H 2410   1.513   2.714   3.922
  207EMC      C 2411   0.388   0.881   2.946
  207EMC      C 2412   0.457   0.891   2.812
  207EMC      O 2413   0.455   0.765   2.744
  207EMC      C 2414   0.556   0.680   2.776
  207EMC      O 2415   0.647   0.702   2.853
  207EMC      O 2416   0.539   0.566   2.704
  207EMC      C 2417   0.639   0.468   2.727
  207EMC      H 2418   0.285   0.844   2.934
  207EMC      H 2419   0.385   0.979   2.995
  207EMC      H 2420   0.439   0.811   3.012
  207EMC      H 2421   0.404   0.963   2.748
  207EMC      H 2422   0.560   0.929   2.822
  207EMC      H 2423   0.738   0.505   2.698
  207EMC      H 2424   0.616   0.381   2.665
  207EMC      H 2425   0.639   0.436   2.831
  208EMC      C 2426   0.182   0.506   3.903
  208EMC      C 2427   0.286   0.556   3.805
  208EMC      O 2428   0.334   0.449   3.723
  208EMC      C 2429   0.437   0.378   3.775
  208EMC      O 2430   0.491   0.397   3.883
  208EMC      O 2431   0.470   0.281   3.686
  208EMC      C 2432   0.578   0.198   3.729
  208EMC      H 2433   0.100   0.456   3.850
  208EMC      H 2434   0.141   0.589   3.961
  208EMC      H 2435   0.225   0.433   3.971
  208EMC      H 2436   0.240   0.630   3.737
  208EMC      H 2437   0.368   0.608   3.856
  208EMC      H 2438   0.670   0.257   3.742
  208EMC      H 2439   0.597   0.124   3.650
  208EMC      H 2440   0.553   0.145   3.821
  209EMC      C 2441   2.334   2.799   2.203
  209EMC      C 2442   2.481   2.833   2.198
  209EMC      O 2443   2.500   2.974   2.205
  209EMC      C 2444   2.495   3.039   2.086
  209EMC      O 2445   2.476   2.989   1.977
  209EMC      O 2446   2.515   3.171   2.110
  209EMC      C 2447   2.512   3.253   1.993
  209EMC      H 2448   2.287   2.841   2.293
  209EMC      H 2449   2.319   2.690   2.204
  209EMC      H 2450   2.281   2.840   2.118
  209EMC      H 2451   2.532   2.789   2.285
  209EMC      H 2452   2.529   2.789   2.109
  209EMC      H 2453   2.592   3.223   1.923
  209EMC      H 2454   2.529   3.356   2.023
  209EMC      H 2455   2.414   3.247   1.944
  210EMC      C 2456   2.585   3.059   3.177
  210EMC      C 2457   2.718   3.124   3.210
  210EMC      O 2458   2.712   3.265   3.186
  210EMC      C 2459   2.740   3.303   3.058
  210EMC      O 2460   2.768   3.230   2.966
  210EMC      O 2461   2.730   3.438   3.053
  210EMC      C 2462   2.757   3.493   2.924
  210EMC      H 2463   2.504   3.107   3.234
  210EMC      H 2464   2.587   2.952   3.201
  210EMC      H 2465   2.560   3.071   3.072
  210EMC      H 2466   2.741   3.111   3.317
  210EMC      H 2467   2.800   3.077   3.154
  210EMC      H 2468   2.860   3.470   2.892
  210EMC      H 2469   2.747   3.602   2.930
  210EMC      H 2470   2.685   3.456   2.850
  211EMC      C 2471   2.201   1.594   2.174
  211EMC      C 2472   2.257   1.714   2.101
  211EMC      O 2473   2.166   1.757   1.999
  211EMC      C 2474   2.180   1.695   1.879
  211EMC      O 2475   2.261   1.608   1.851
  211EMC      O 2476   2.088   1.746   1.794
  211EMC      C 2477   2.091   1.690   1.663
  211EMC      H 2478   2.102   1.616   2.215
  211EMC      H 2479   2.268   1.564   2.256
  211EMC      H 2480   2.189   1.509   2.107
  211EMC      H 2481   2.268   1.798   2.171
  211EMC      H 2482   2.357   1.693   2.060
  211EMC      H 2483   2.188   1.708   1.615
  211EMC      H 2484   2.013   1.738   1.603
  211EMC      H 2485   2.069   1.583   1.667
  212EMC      C 2486   0.415   2.265   1.974
  212EMC      C 2487   0.471   2.205   1.847
  212EMC      O 2488   0.608   2.167   1.865
  212EMC      C 2489   0.699   2.265   1.843
  212EMC      O 2490   0.674   2.380   1.809
  212EMC      O 2491   0.822   2.214   1.864
  212EMC      C 2492   0.928   2.307   1.844
  212EMC      H 2493   0.427   2.195   2.058
  212EMC      H 2494   0.309   2.288   1.962
  212EMC      H 2495   0.468   2.356   2.001
  212EMC      H 2496   0.415   2.113   1.822
  212EMC      H 2497   0.459   2.273   1.761
  212EMC      H 2498   0.929   2.343   1.740
  212EMC      H 2499   1.023   2.255   1.863
  212EMC      H 2500   0.920   2.391   1.913
  213EMC      C 2501   3.296   1.660   2.042
  213EMC      C 2502   3.165   1.621   1.976
  213EMC      O 2503   3.056   1.643   2.065
  213EMC      C 2504   3.028   1.541   2.150
  213EMC      O 2505   3.087   1.435   2.157
  213EMC      O 2506   2.923   1.578   2.227
  213EMC      C 2507   2.883   1.479   2.322
  213EMC      H 2508   3.292   1.765   2.075
  213EMC      H 2509   3.379   1.649   1.971
  213EMC      H 2510   3.316   1.599   2.129
  213EMC      H 2511   3.148   1.684   1.887
  213EMC      H 2512   3.168   1.517   1.940
  213EMC      H 2513   2.851   1.386   2.271
  213EMC      H 2514   2.798   1.518   2.378
  213EMC      H 2515   2.964   1.458   2.392
  214EMC      C 2516   0.380   0.693   0.909
  214EMC      C 2517   0.492   0.794   0.894
  214EMC      O 2518   0.582   0.754   0.791
  214EMC      C 2519   0.681   0.670   0.830
  214EMC      O 2520   0.700   0.627   0.942
  214EMC      O 2521   0.757   0.642   0.721
  214EMC      C 2522   0.867   0.554   0.748
  214EMC      H 2523   0.328   0.679   0.813
  214EMC      H 2524   0.307   0.727   0.984
  214EMC      H 2525   0.418   0.596   0.939
  214EMC      H 2526   0.450   0.891   0.864
  214EMC      H 2527   0.544   0.810   0.989
  214EMC      H 2528   0.936   0.598   0.821
  214EMC      H 2529   0.921   0.538   0.654
  214EMC      H 2530   0.830   0.457   0.783
  215EMC      C 2531   3.826   3.014   2.439
  215EMC      C 2532   3.898   2.950   2.322
  215EMC      O 2533   3.805   2.896   2.228
  215EMC      C 2534   3.763   2.770   2.254
  215EMC      O 2535   3.797   2.700   2.348
  215EMC      O 2536   3.675   2.735   2.157
  215EMC      C 2537   3.623   2.603   2.171
  215EMC      H 2538   3.756   3.091   2.403
  215EMC      H 2539   3.898   3.061   2.508
  215EMC      H 2540   3.767   2.941   2.494
  215EMC      H 2541   3.958   3.026   2.269
  215EMC      H 2542   3.970   2.874   2.357
  215EMC      H 2543   3.703   2.528   2.167
  215EMC      H 2544   3.554   2.584   2.088
  215EMC      H 2545   3.567   2.594   2.265
  216EMC      C 2546   2.313   2.277   2.529
  216EMC      C 2547   2.213   2.365   2.459
  216EMC      O 2548   2.204   2.493   2.523
  216EMC      C 2549   2.117   2.500   2.627
  216EMC      O 2550   2.047   2.409   2.668
  216EMC      O 2551   2.121   2.626   2.676
  216EMC      C 2552   2.033   2.648   2.787
  216EMC      H 2553   2.411   2.326   2.534
  216EMC      H 2554   2.324   2.181   2.476
  216EMC      H 2555   2.283   2.257   2.632
  216EMC      H 2556   2.246   2.384   2.355
  216EMC      H 2557   2.114   2.317   2.451
  216EMC      H 2558   1.928   2.631   2.757
  216EMC      H 2559   2.044   2.752   2.819
  216EMC      H 2560   2.060   2.583   2.871
  217EMC      C 2561   2.102   2.894   3.763
  217EMC      C 2562   2.236   2.883   3.696
  217EMC      O 2563   2.262   2.748   3.657
  217EMC      C 2564   2.319   2.670   3.753
  217EMC      O 2565   2.349   2.704   3.865
  217EMC      O 2566   2.336   2.546   3.700
  217EMC      C 2567   2.396   2.453   3.790
  217EMC      H 2568   2.022   2.856   3.698
  217EMC      H 2569   2.079   2.999   3.788
  217EMC      H 2570   2.098   2.836   3.855
  217EMC      H 2571   2.237   2.944   3.604
  217EMC      H 2572   2.317   2.923   3.760
  217EMC      H 2573   2.496   2.486   3.820
  217EMC      H 2574   2.405   2.357   3.738
  217EMC      H 2575   2.332   2.438   3.878
  218EMC      C 2576   1.037   0.587   3.099
  218EMC      C 2577   1.065   0.493   3.214
  218EMC      O 2578   0.947   0.471   3.291
  218EMC      C 2579   0.925   0.562   3.390
  218EMC      O 2580   0.995   0.658   3.416
  218EMC      O 2581   0.811   0.528   3.453
  218EMC      C 2582   0.775   0.615   3.560
  218EMC      H 2583   0.954   0.549   3.037
  218EMC      H 2584   1.126   0.599   3.035
  218EMC      H 2585   1.007   0.685   3.135
  218EMC      H 2586   1.096   0.394   3.174
  218EMC      H 2587   1.149   0.529   3.275
  218EMC      H 2588   0.853   0.616   3.638
  218EMC      H 2589   0.682   0.579   3.604
  218EMC      H 2590   0.758   0.717   3.522
  219EMC      C 2591   0.173   2.922   2.756
  219EMC      C 2592   0.270   2.810   2.786
  219EMC      O 2593   0.334   2.832   2.912
  219EMC      C 2594   0.446   2.909   2.908
  219EMC      O 2595   0.495   2.960   2.809
  219EMC      O 2596   0.494   2.920   3.034
  219EMC      C 2597   0.612   2.999   3.045
  219EMC      H 2598   0.100   2.933   2.837
  219EMC      H 2599   0.119   2.903   2.662
  219EMC      H 2600   0.225   3.018   2.747
  219EMC      H 2601   0.215   2.715   2.794
  219EMC      H 2602   0.343   2.797   2.705
  219EMC      H 2603   0.694   2.955   2.986
  219EMC      H 2604   0.643   3.001   3.150
  219EMC      H 2605   0.593   3.102   3.012
  220EMC      C 2606   1.805   0.359   3.121
  220EMC      C 2607   1.895   0.353   3.243
  220EMC      O 2608   1.879   0.471   3.323
  220EMC      C 2609   1.957   0.576   3.287
  220EMC      O 2610   2.037   0.579   3.195
  220EMC      O 2611   1.930   0.678   3.372
  220EMC      C 2612   2.005   0.797   3.346
  220EMC      H 2613   1.700   0.373   3.152
  220EMC      H 2614   1.812   0.266   3.063
  220EMC      H 2615   1.831   0.443   3.057
  220EMC      H 2616   1.867   0.267   3.306
  220EMC      H 2617   2.000   0.337   3.214
  220EMC      H 2618   2.113   0.778   3.356
  220EMC      H 2619   1.977   0.872   3.419
  220EMC      H 2620   1.983   0.835   3.246
  221EMC      C 2621   1.950   0.800   0.503
  221EMC      C 2622   1.850   0.897   0.563
  221EMC      O 2623   1.791   0.842   0.680
  221EMC      C 2624   1.681   0.764   0.659
  221EMC      O 2625   1.631   0.738   0.551
  221EMC      O 2626   1.637   0.720   0.779
  221EMC      C 2627   1.522   0.637   0.772
  221EMC      H 2628   2.026   0.772   0.578
  221EMC      H 2629   2.000   0.844   0.416
  221EMC      H 2630   1.901   0.708   0.471
  221EMC      H 2631   1.902   0.989   0.593
  221EMC      H 2632   1.775   0.928   0.489
  221EMC      H 2633   1.437   0.692   0.728
  221EMC      H 2634   1.494   0.608   0.873
  221EMC      H 2635   1.543   0.547   0.714
  222EMC      C 2636   1.696   3.133   3.020
  222EMC      C 2637   1.715   3.096   2.875
  222EMC      O 2638   1.712   3.212   2.792
  222EMC      C 2639   1.588   3.251   2.751
  222EMC      O 2640   1.483   3.196   2.778
  222EMC      O 2641   1.603   3.361   2.674
  222EMC      C 2642   1.479   3.413   2.624
  222EMC      H 2643   1.771   3.207   3.051
  222EMC      H 2644   1.705   3.045   3.084
  222EMC      H 2645   1.598   3.179   3.036
  222EMC      H 2646   1.815   3.049   2.861
  222EMC      H 2647   1.642   3.020   2.842
  222EMC      H 2648   1.429   3.339   2.560
  222EMC      H 2649   1.502   3.502   2.563
  222EMC      H 2650   1.414   3.444   2.706
  223EMC      C 2651   2.071   1.241   2.419
  223EMC      C 2652   2.126   1.369   2.361
  223EMC      O 2653   2.209   1.436   2.456
  223EMC      C 2654   2.143   1.519   2.541
  223EMC      O 2655   2.024   1.540   2.543
  223EMC      O 2656   2.235   1.574   2.624
  223EMC      C 2657   2.180   1.665   2.720
  223EMC      H 2658   2.153   1.176   2.454
  223EMC      H 2659   2.013   1.186   2.345
  223EMC      H 2660   2.007   1.261   2.505
  223EMC      H 2661   2.190   1.345   2.274
  223EMC      H 2662   2.045   1.434   2.324
  223EMC      H 2663   2.131   1.750   2.670
  223EMC      H 2664   2.262   1.704   2.781
  223EMC      H 2665   2.110   1.613   2.785
  224EMC      C 2666   3.073   0.227   0.535
  224EMC      C 2667   3.135   0.205   0.671
  224EMC      O 2668   3.033   0.190   0.771
  224EMC      C 2669   2.988   0.307   0.825
  224EMC      O 2670   3.026   0.419   0.797
  224EMC      O 2671   2.893   0.276   0.917
  224EMC      C 2672   2.837   0.389   0.983
  224EMC      H 2673   3.003   0.145   0.511
  224EMC      H 2674   3.150   0.231   0.458
  224EMC      H 2675   3.015   0.319   0.532
  224EMC      H 2676   3.193   0.111   0.671
  224EMC      H 2677   3.205   0.285   0.697
  224EMC      H 2678   2.914   0.445   1.038
  224EMC      H 2679   2.762   0.354   1.054
  224EMC      H 2680   2.787   0.455   0.910
  225EMC      C 2681   3.086   2.788   1.713
  225EMC      C 2682   3.189   2.879   1.776
  225EMC      O 2683   3.224   2.832   1.907
  225EMC      C 2684   3.143   2.875   2.007
  225EMC      O 2685   3.046   2.948   1.996
  225EMC      O 2686   3.189   2.823   2.123
  225EMC      C 2687   3.113   2.860   2.238
  225EMC      H 2688   3.123   2.684   1.710
  225EMC      H 2689   3.064   2.820   1.610
  225EMC      H 2690   2.994   2.787   1.769
  225EMC      H 2691   3.281   2.878   1.716
  225EMC      H 2692   3.154   2.983   1.778
  225EMC      H 2693   3.116   2.969   2.252
  225EMC      H 2694   3.159   2.813   2.325
  225EMC      H 2695   3.010   2.825   2.229
  226EMC      C 2696   0.560   2.065   3.669
  226EMC      C 2697   0.575   1.933   3.597
  226EMC      O 2698   0.447   1.874   3.573
  226EMC      C 2699   0.399   1.798   3.675
  226EMC      O 2700   0.454   1.776   3.781
  226EMC      O 2701   0.278   1.749   3.637
  226EMC      C 2702   0.215   1.667   3.735
  226EMC      H 2703   0.494   2.133   3.612
  226EMC      H 2704   0.658   2.114   3.681
  226EMC      H 2705   0.515   2.052   3.767
  226EMC      H 2706   0.621   1.950   3.498
  226EMC      H 2707   0.642   1.865   3.651
  226EMC      H 2708   0.277   1.578   3.756
  226EMC      H 2709   0.120   1.633   3.695
  226EMC      H 2710   0.197   1.723   3.827
  227EMC      C 2711   1.742   2.713   2.528
  227EMC      C 2712   1.756   2.563   2.520
  227EMC      O 2713   1.629   2.501   2.501
  227EMC      C 2714   1.559   2.476   2.615
  227EMC      O 2715   1.595   2.499   2.729
  227EMC      O 2716   1.441   2.418   2.580
  227EMC      C 2717   1.358   2.385   2.691
  227EMC      H 2718   1.692   2.752   2.438
  227EMC      H 2719   1.840   2.761   2.536
  227EMC      H 2720   1.682   2.743   2.614
  227EMC      H 2721   1.818   2.536   2.433
  227EMC      H 2722   1.808   2.523   2.609
  227EMC      H 2723   1.407   2.312   2.757
  227EMC      H 2724   1.266   2.339   2.652
  227EMC      H 2725   1.330   2.475   2.747
  228EMC      C 2726   0.656   1.679   2.725
  228EMC      C 2727   0.677   1.823   2.683
  228EMC      O 2728   0.816   1.856   2.686
  228EMC      C 2729   0.863   1.898   2.807
  228EMC      O 2730   0.799   1.910   2.909
  228EMC      O 2731   0.996   1.925   2.793
  228EMC      C 2732   1.058   1.971   2.913
  228EMC      H 2733   0.715   1.611   2.662
  228EMC      H 2734   0.550   1.652   2.717
  228EMC      H 2735   0.688   1.663   2.828
  228EMC      H 2736   0.644   1.837   2.579
  228EMC      H 2737   0.618   1.892   2.745
  228EMC      H 2738   1.013   2.065   2.947
  228EMC      H 2739   1.164   1.990   2.891
  228EMC      H 2740   1.053   1.895   2.991
  229EMC      C 2741   3.557   2.898   3.539
  229EMC      C 2742   3.417   2.952   3.554
  229EMC      O 2743   3.364   2.988   3.427
  229EMC      C 2744   3.394   3.114   3.385
  229EMC      O 2745   3.460   3.196   3.446
  229EMC      O 2746   3.336   3.133   3.264
  229EMC      C 2747   3.360   3.262   3.208
  229EMC      H 2748   3.559   2.813   3.469
  229EMC      H 2749   3.596   2.864   3.636
  229EMC      H 2750   3.625   2.973   3.499
  229EMC      H 2751   3.351   2.874   3.595
  229EMC      H 2752   3.414   3.036   3.625
  229EMC      H 2753   3.318   3.341   3.272
  229EMC      H 2754   3.309   3.267   3.111
  229EMC      H 2755   3.467   3.278   3.192
  230EMC      C 2756   2.877   2.704   0.486
  230EMC      C 2757   3.007   2.773   0.453
  230EMC      O 2758   3.065   2.832   0.570
  230EMC      C 2759   3.021   2.957   0.599
  230EMC      O 2760   2.940   3.022   0.535
  230EMC      O 2761   3.084   2.998   0.711
  230EMC      C 2762   3.048   3.130   0.754
  230EMC      H 2763   2.893   2.629   0.566
  230EMC      H 2764   2.836   2.653   0.398
  230EMC      H 2765   2.803   2.774   0.523
  230EMC      H 2766   3.080   2.699   0.415
  230EMC      H 2767   2.994   2.847   0.372
  230EMC      H 2768   3.074   3.204   0.677
  230EMC      H 2769   3.104   3.153   0.845
  230EMC      H 2770   2.941   3.134   0.777
  231EMC      C 2771   0.809   3.681   2.688
  231EMC      C 2772   0.931   3.650   2.771
  231EMC      O 2773   0.906   3.539   2.858
  231EMC      C 2774   0.849   3.571   2.978
  231EMC      O 2775   0.820   3.682   3.016
  231EMC      O 2776   0.832   3.456   3.047
  231EMC      C 2777   0.773   3.475   3.176
  231EMC      H 2778   0.776   3.593   2.632
  231EMC      H 2779   0.830   3.762   2.617
  231EMC      H 2780   0.725   3.712   2.751
  231EMC      H 2781   1.014   3.620   2.705
  231EMC      H 2782   0.966   3.738   2.827
  231EMC      H 2783   0.837   3.538   3.239
  231EMC      H 2784   0.763   3.377   3.224
  231EMC      H 2785   0.673   3.518   3.167
  232EMC      C 2786   3.368   2.223   1.336
  232EMC      C 2787   3.298   2.190   1.466
  232EMC      O 2788   3.159   2.165   1.443
  232EMC      C 2789   3.079   2.275   1.442
  232EMC      O 2790   3.115   2.390   1.460
  232EMC      O 2791   2.952   2.234   1.419
  232EMC      C 2792   2.857   2.340   1.417
  232EMC      H 2793   3.354   2.142   1.263
  232EMC      H 2794   3.476   2.236   1.352
  232EMC      H 2795   3.329   2.314   1.291
  232EMC      H 2796   3.341   2.099   1.509
  232EMC      H 2797   3.313   2.270   1.540
  232EMC      H 2798   2.853   2.392   1.513
  232EMC      H 2799   2.758   2.296   1.398
  232EMC      H 2800   2.879   2.410   1.336
  233EMC      C 2801   0.769   0.781   1.203
  233EMC      C 2802   0.820   0.883   1.104
  233EMC      O 2803   0.923   0.828   1.022
  233EMC      C 2804   1.048   0.836   1.074
  233EMC      O 2805   1.079   0.885   1.181
  233EMC      O 2806   1.133   0.779   0.986
  233EMC      C 2807   1.270   0.780   1.027
  233EMC      H 2808   0.735   0.691   1.151
  233EMC      H 2809   0.685   0.822   1.262
  233EMC      H 2810   0.848   0.750   1.272
  233EMC      H 2811   0.738   0.913   1.037
  233EMC      H 2812   0.853   0.975   1.155
  233EMC      H 2813   1.306   0.883   1.040
  233EMC      H 2814   1.330   0.732   0.949
  233EMC      H 2815   1.283   0.723   1.120
  234EMC      C 2816   3.777   1.953   3.872
  234EMC      C 2817   3.912   1.919   3.813
  234EMC      O 2818   3.896   1.858   3.685
  234EMC      C 2819   3.878   1.723   3.686
  234EMC      O 2820   3.873   1.652   3.785
  234EMC      O 2821   3.864   1.681   3.558
  234EMC      C 2822   3.844   1.540   3.545
  234EMC      H 2823   3.720   2.018   3.804
  234EMC      H 2824   3.789   2.006   3.968
  234EMC      H 2825   3.717   1.864   3.889
  234EMC      H 2826   3.970   2.011   3.797
  234EMC      H 2827   3.971   1.856   3.881
  234EMC      H 2828   3.930   1.485   3.585
  234EMC      H 2829   3.835   1.517   3.438
  234EMC      H 2830   3.752   1.510   3.595
  235EMC      C 2831   2.110   3.281   0.287
  235EMC      C 2832   1.989   3.302   0.199
  235EMC      O 2833   1.966   3.442   0.178
  235EMC      C 2834   1.891   3.503   0.273
  235EMC      O 2835   1.842   3.451   0.371
  235EMC      O 2836   1.878   3.634   0.239
  235EMC      C 2837   1.801   3.711   0.330
  235EMC      H 2838   2.198   3.331   0.245
  235EMC      H 2839   2.131   3.174   0.299
  235EMC      H 2840   2.095   3.324   0.386
  235EMC      H 2841   2.007   3.258   0.100
  235EMC      H 2842   1.900   3.252   0.240
  235EMC      H 2843   1.698   3.672   0.336
  235EMC      H 2844   1.797   3.814   0.293
  235EMC      H 2845   1.847   3.711   0.429
  236EMC      C 2846   1.405   1.568   0.706
  236EMC      C 2847   1.318   1.691   0.694
  236EMC      O 2848   1.180   1.655   0.687
  236EMC      C 2849   1.134   1.627   0.562
  236EMC      O 2850   1.198   1.630   0.459
  236EMC      O 2851   1.003   1.595   0.573
  236EMC      C 2852   0.940   1.562   0.449
  236EMC      H 2853   1.374   1.508   0.793
  236EMC      H 2854   1.510   1.595   0.718
  236EMC      H 2855   1.395   1.504   0.619
  236EMC      H 2856   1.331   1.754   0.784
  236EMC      H 2857   1.349   1.753   0.608
  236EMC      H 2858   0.944   1.648   0.380
  236EMC      H 2859   0.836   1.539   0.468
  236EMC      H 2860   0.988   1.475   0.404
  237EMC      C 2861   1.176   0.999   2.916
  237EMC      C 2862   1.300   0.916   2.937
  237EMC      O 2863   1.368   0.894   2.813
  237EMC      C 2864   1.324   0.787   2.741
  237EMC      O 2865   1.236   0.710   2.773
  237EMC      O 2866   1.397   0.781   2.627
  237EMC      C 2867   1.362   0.671   2.542
  237EMC      H 2868   1.200   1.094   2.866
  237EMC      H 2869   1.127   1.021   3.012
  237EMC      H 2870   1.104   0.948   2.852
  237EMC      H 2871   1.371   0.971   3.002
  237EMC      H 2872   1.278   0.822   2.988
  237EMC      H 2873   1.379   0.575   2.593
  237EMC      H 2874   1.427   0.675   2.454
  237EMC      H 2875   1.259   0.680   2.509
  238EMC      C 2876   2.860   1.126   0.617
  238EMC      C 2877   2.857   1.053   0.485
  238EMC      O 2878   2.818   0.917   0.504
  238EMC      C 2879   2.920   0.831   0.534
  238EMC      O 2880   3.037   0.860   0.545
  238EMC      O 2881   2.867   0.707   0.548
  238EMC      C 2882   2.963   0.607   0.580
  238EMC      H 2883   2.763   1.119   0.668
  238EMC      H 2884   2.883   1.232   0.602
  238EMC      H 2885   2.934   1.084   0.684
  238EMC      H 2886   2.781   1.099   0.419
  238EMC      H 2887   2.953   1.061   0.432
  238EMC      H 2888   3.037   0.597   0.499
  238EMC      H 2889   2.910   0.511   0.590
  238EMC      H 2890   3.012   0.629   0.675
  239EMC      C 2891   3.765   2.443   3.816
  239EMC      C 2892   3.801   2.390   3.679
  239EMC      O 2893   3.774   2.488   3.578
  239EMC      C 2894   3.647   2.487   3.530
  239EMC      O 2895   3.557   2.412   3.564
  239EMC      O 2896   3.637   2.585   3.437
  239EMC      C 2897   3.508   2.595   3.377
  239EMC      H 2898   3.817   2.537   3.836
  239EMC      H 2899   3.792   2.370   3.894
  239EMC      H 2900   3.658   2.463   3.823
  239EMC      H 2901   3.910   2.370   3.675
  239EMC      H 2902   3.751   2.295   3.657
  239EMC      H 2903   3.481   2.502   3.324
  239EMC      H 2904   3.511   2.676   3.304
  239EMC      H 2905   3.432   2.620   3.452
  240EMC      C 2906   2.293   2.082   3.216
  240EMC      C 2907   2.415   2.169   3.232
  240EMC      O 2908   2.482   2.186   3.107
  240EMC      C 2909   2.571   2.089   3.075
  240EMC      O 2910   2.600   1.992   3.142
  240EMC      O 2911   2.625   2.120   2.954
  240EMC      C 2912   2.722   2.026   2.908
  240EMC      H 2913   2.225   2.123   3.140
  240EMC      H 2914   2.239   2.073   3.311
  240EMC      H 2915   2.320   1.981   3.183
  240EMC      H 2916   2.385   2.270   3.266
  240EMC      H 2917   2.483   2.130   3.309
  240EMC      H 2918   2.807   2.021   2.977
  240EMC      H 2919   2.758   2.060   2.811
  240EMC      H 2920   2.677   1.927   2.895
  241EMC      C 2921   1.519   1.597   2.767
  241EMC      C 2922   1.614   1.567   2.881
  241EMC      O 2923   1.736   1.511   2.831
  241EMC      C 2924   1.735   1.376   2.814
  241EMC      O 2925   1.642   1.301   2.838
  241EMC      O 2926   1.856   1.339   2.767
  241EMC      C 2927   1.870   1.199   2.744
  241EMC      H 2928   1.567   1.663   2.694
  241EMC      H 2929   1.428   1.646   2.805
  241EMC      H 2930   1.490   1.506   2.715
  241EMC      H 2931   1.641   1.661   2.933
  241EMC      H 2932   1.568   1.502   2.957
  241EMC      H 2933   1.857   1.143   2.838
  241EMC      H 2934   1.971   1.180   2.706
  241EMC      H 2935   1.798   1.165   2.669
  242EMC      C 2936   1.805   1.645   1.823
  242EMC      C 2937   1.894   1.528   1.857
  242EMC      O 2938   1.899   1.436   1.748
  242EMC      C 2939   1.799   1.343   1.745
  242EMC      O 2940   1.709   1.332   1.826
  242EMC      O 2941   1.819   1.264   1.637
  242EMC      C 2942   1.721   1.161   1.621
  242EMC      H 2943   1.839   1.694   1.731
  242EMC      H 2944   1.806   1.719   1.905
  242EMC      H 2945   1.702   1.614   1.806
  242EMC      H 2946   1.997   1.563   1.874
  242EMC      H 2947   1.862   1.479   1.950
  242EMC      H 2948   1.723   1.093   1.708
  242EMC      H 2949   1.746   1.104   1.532
  242EMC      H 2950   1.621   1.205   1.609
  243EMC      C 2951   1.780   0.838   2.451
  243EMC      C 2952   1.739   0.822   2.595
  243EMC      O 2953   1.806   0.711   2.655
  243EMC      C 2954   1.745   0.591   2.638
  243EMC      O 2955   1.640   0.570   2.579
  243EMC      O 2956   1.821   0.497   2.699
  243EMC      C 2957   1.768   0.364   2.690
  243EMC      H 2958   1.889   0.848   2.442
  243EMC      H 2959   1.733   0.927   2.407
  243EMC      H 2960   1.751   0.751   2.391
  243EMC      H 2961   1.769   0.912   2.652
  243EMC      H 2962   1.630   0.814   2.605
  243EMC      H 2963   1.669   0.358   2.738
  243EMC      H 2964   1.836   0.297   2.742
  243EMC      H 2965   1.762   0.333   2.585
  244EMC      C 2966   2.251   1.284   2.726
  244EMC      C 2967   2.392   1.257   2.774
  244EMC      O 2968   2.394   1.239   2.916
  244EMC      C 2969   2.405   1.354   2.989
  244EMC      O 2970   2.414   1.466   2.944
  244EMC      O 2971   2.405   1.320   3.120
  244EMC      C 2972   2.417   1.431   3.208
  244EMC      H 2973   2.183   1.203   2.758
  244EMC      H 2974   2.248   1.291   2.616
  244EMC      H 2975   2.212   1.376   2.768
  244EMC      H 2976   2.429   1.163   2.730
  244EMC      H 2977   2.461   1.336   2.742
  244EMC      H 2978   2.512   1.484   3.192
  244EMC      H 2979   2.417   1.393   3.311
  244EMC      H 2980   2.333   1.499   3.196
  245EMC      C 2981   1.596   1.928   0.327
  245EMC      C 2982   1.600   1.816   0.226
  245EMC      O 2983   1.478   1.811   0.151
  245EMC      C 2984   1.379   1.738   0.208
  245EMC      O 2985   1.385   1.678   0.313
  245EMC      O 2986   1.271   1.743   0.126
  245EMC      C 2987   1.158   1.670   0.173
  245EMC      H 2988   1.575   2.024   0.278
  245EMC      H 2989   1.692   1.936   0.380
  245EMC      H 2990   1.517   1.912   0.400
  245EMC      H 2991   1.681   1.835   0.153
  245EMC      H 2992   1.623   1.720   0.273
  245EMC      H 2993   1.182   1.563   0.183
  245EMC      H 2994   1.078   1.680   0.100
  245EMC      H 2995   1.124   1.710   0.269
  246EMC      C 2996   2.862   0.663   1.457
  246EMC      C 2997   2.741   0.605   1.389
  246EMC      O 2998   2.624   0.682   1.419
  246EMC      C 2999   2.560   0.648   1.534
  246EMC      O 3000   2.592   0.559   1.610
  246EMC      O 3001   2.453   0.730   1.548
  246EMC      C 3002   2.375   0.704   1.665
  246EMC      H 3003   2.876   0.769   1.429
  246EMC      H 3004   2.953   0.608   1.429
  246EMC      H 3005   2.852   0.660   1.565
  246EMC      H 3006   2.754   0.609   1.279
  246EMC      H 3007   2.727   0.499   1.414
  246EMC      H 3008   2.334   0.602   1.662
  246EMC      H 3009   2.292   0.775   1.666
  246EMC      H 3010   2.435   0.719   1.755
  247EMC      C 3011   1.933   2.613   3.246
  247EMC      C 3012   1.919   2.611   3.095
  247EMC      O 3013   1.785   2.643   3.057
  247EMC      C 3014   1.700   2.537   3.052
  247EMC      O 3015   1.727   2.421   3.077
  247EMC      O 3016   1.578   2.584   3.015
  247EMC      C 3017   1.478   2.483   3.005
  247EMC      H 3018   1.901   2.710   3.287
  247EMC      H 3019   2.037   2.594   3.275
  247EMC      H 3020   1.870   2.537   3.292
  247EMC      H 3021   1.984   2.689   3.051
  247EMC      H 3022   1.952   2.515   3.053
  247EMC      H 3023   1.505   2.408   2.930
  247EMC      H 3024   1.384   2.530   2.974
  247EMC      H 3025   1.462   2.435   3.102
  248EMC      C 3026   0.201   1.951   1.965
  248EMC      C 3027   0.299   1.874   1.878
  248EMC      O 3028   0.256   1.739   1.862
  248EMC      C 3029   0.296   1.653   1.960
  248EMC      O 3030   0.364   1.682   2.057
  248EMC      O 3031   0.247   1.530   1.930
  248EMC      C 3032   0.283   1.430   2.025
  248EMC      H 3033   0.100   1.946   1.923
  248EMC      H 3034   0.231   2.057   1.972
  248EMC      H 3035   0.197   1.910   2.065
  248EMC      H 3036   0.302   1.919   1.777
  248EMC      H 3037   0.401   1.880   1.918
  248EMC      H 3038   0.392   1.417   2.030
  248EMC      H 3039   0.239   1.335   1.992
  248EMC      H 3040   0.242   1.454   2.123
  249EMC      C 3041   2.012   1.911   1.008
  249EMC      C 3042   1.931   1.840   1.113
  249EMC      O 3043   1.999   1.723   1.159
  249EMC      C 3044   1.977   1.611   1.086
  249EMC      O 3045   1.906   1.602   0.987
  249EMC      O 3046   2.048   1.510   1.141
  249EMC      C 3047   2.034   1.385   1.074
  249EMC      H 3048   2.112   1.935   1.046
  249EMC      H 3049   1.962   2.004   0.977
  249EMC      H 3050   2.025   1.849   0.920
  249EMC      H 3051   1.918   1.906   1.201
  249EMC      H 3052   1.829   1.817   1.078
  249EMC      H 3053   1.929   1.351   1.076
  249EMC      H 3054   2.095   1.311   1.127
  249EMC      H 3055   2.070   1.392   0.971
  250EMC      C 3056   2.829   2.938   1.472
  250EMC      C 3057   2.695   2.915   1.538
  250EMC      O 3058   2.628   2.803   1.478
  250EMC      C 3059   2.554   2.833   1.368
  250EMC      O 3060   2.539   2.942   1.318
  250EMC      O 3061   2.498   2.717   1.324
  250EMC      C 3062   2.416   2.734   1.208
  250EMC      H 3063   2.890   2.847   1.476
  250EMC      H 3064   2.883   3.019   1.522
  250EMC      H 3065   2.817   2.963   1.367
  250EMC      H 3066   2.710   2.890   1.644
  250EMC      H 3067   2.633   3.005   1.536
  250EMC      H 3068   2.332   2.801   1.229
  250EMC      H 3069   2.376   2.636   1.181
  250EMC      H 3070   2.475   2.771   1.124
  251EMC      C 3071   0.181   3.022   1.766
  251EMC      C 3072   0.315   3.012   1.698
  251EMC      O 3073   0.334   2.881   1.643
  251EMC      C 3074   0.386   2.789   1.729
  251EMC      O 3075   0.417   2.809   1.845
  251EMC      O 3076   0.397   2.672   1.662
  251EMC      C 3077   0.451   2.566   1.741
  251EMC      H 3078   0.100   2.996   1.696
  251EMC      H 3079   0.163   3.124   1.802
  251EMC      H 3080   0.174   2.954   1.850
  251EMC      H 3081   0.319   3.083   1.613
  251EMC      H 3082   0.397   3.040   1.765
  251EMC      H 3083   0.553   2.590   1.775
  251EMC      H 3084   0.456   2.476   1.678
  251EMC      H 3085   0.386   2.544   1.826
  252EMC      C 3086   1.200   1.614   2.234
  252EMC      C 3087   1.110   1.735   2.234
  252EMC      O 3088   1.155   1.832   2.139
  252EMC      C 3089   1.249   1.919   2.185
  252EMC      O 3090   1.296   1.921   2.297
  252EMC      O 3091   1.281   2.003   2.083
  252EMC      C 3092   1.379   2.100   2.118
  252EMC      H 3093   1.208   1.571   2.133
  252EMC      H 3094   1.162   1.537   2.302
  252EMC      H 3095   1.302   1.640   2.265
  252EMC      H 3096   1.008   1.705   2.203
  252EMC      H 3097   1.100   1.778   2.334
  252EMC      H 3098   1.342   2.165   2.199
  252EMC      H 3099   1.397   2.163   2.030
  252EMC      H 3100   1.473   2.052   2.146
  253EMC      C 3101   2.782   1.722   3.610
  253EMC      C 3102   2.670   1.753   3.706
  253EMC      O 3103   2.640   1.638   3.787
  253EMC      C 3104   2.552   1.550   3.732
  253EMC      O 3105   2.497   1.561   3.624
  253EMC      O 3106   2.535   1.449   3.821
  253EMC      C 3107   2.444   1.348   3.776
  253EMC      H 3108   2.871   1.687   3.664
  253EMC      H 3109   2.809   1.811   3.552
  253EMC      H 3110   2.754   1.643   3.540
  253EMC      H 3111   2.701   1.833   3.775
  253EMC      H 3112   2.581   1.789   3.653
  253EMC      H 3113   2.343   1.391   3.761
  253EMC      H 3114   2.437   1.272   3.854
  253EMC      H 3115   2.480   1.301   3.685
  254EMC      C 3116   1.815   0.671   1.681
  254EMC      C 3117   1.781   0.537   1.744
  254EMC      O 3118   1.899   0.458   1.762
  254EMC      C 3119   1.935   0.383   1.654
  254EMC      O 3120   1.877   0.377   1.547
  254EMC      O 3121   2.048   0.315   1.687
  254EMC      C 3122   2.097   0.231   1.583
  254EMC      H 3123   1.891   0.724   1.741
  254EMC      H 3124   1.726   0.734   1.673
  254EMC      H 3125   1.858   0.658   1.581
  254EMC      H 3126   1.738   0.554   1.844
  254EMC      H 3127   1.705   0.484   1.685
  254EMC      H 3128   2.023   0.154   1.556
  254EMC      H 3129   2.187   0.181   1.620
  254EMC      H 3130   2.124   0.291   1.495
  255EMC      C 3131   1.841   2.101   3.308
  255EMC      C 3132   1.924   2.053   3.424
  255EMC      O 3133   1.980   1.924   3.396
  255EMC      C 3134   1.900   1.819   3.427
  255EMC      O 3135   1.789   1.824   3.475
  255EMC      O 3136   1.967   1.705   3.395
  255EMC      C 3137   1.894   1.585   3.422
  255EMC      H 3138   1.900   2.102   3.215
  255EMC      H 3139   1.803   2.202   3.326
  255EMC      H 3140   1.756   2.035   3.290
  255EMC      H 3141   2.009   2.122   3.440
  255EMC      H 3142   1.866   2.053   3.518
  255EMC      H 3143   1.872   1.577   3.530
  255EMC      H 3144   1.957   1.500   3.393
  255EMC      H 3145   1.802   1.582   3.364
  256FEC      O 3146   1.570   1.063   3.021
  256FEC      C 3147   1.536   1.093   2.908
  256FEC      O 3148   1.414   1.144   2.874
  256FEC      C 3149   1.422   1.185   2.738
  256FEC      C 3150   1.535   1.101   2.687
  256FEC      F 3151   1.491   0.979   2.648
  256FEC      O 3152   1.618   1.082   2.799
  256FEC      H 3153   1.445   1.291   2.736
  256FEC      H 3154   1.328   1.164   2.688
  256FEC      H 3155   1.589   1.147   2.603
  257FEC      O 3156   3.737   0.100   1.488
  257FEC      C 3157   3.637   0.169   1.477
  257FEC      O 3158   3.547   0.192   1.577
  257FEC      C 3159   3.458   0.292   1.531
  257FEC      C 3160   3.470   0.280   1.383
  257FEC      F 3161   3.387   0.184   1.335
  257FEC      O 3162   3.602   0.236   1.362
  257FEC      H 3163   3.493   0.388   1.568
  257FEC      H 3164   3.357   0.271   1.566
  257FEC      H 3165   3.450   0.374   1.329
  258FEC      O 3166   3.960   2.984   0.362
  258FEC      C 3167   3.846   3.018   0.388
  258FEC      O 3168   3.739   3.004   0.304
  258FEC      C 3169   3.623   3.037   0.378
  258FEC      C 3170   3.678   3.122   0.488
  258FEC      F 3171   3.689   3.251   0.448
  258FEC      O 3172   3.809   3.073   0.508
  258FEC      H 3173   3.580   2.944   0.416
  258FEC      H 3174   3.552   3.091   0.316
  258FEC      H 3175   3.619   3.118   0.581
  259FEC      O 3176   1.599   3.312   3.406
  259FEC      C 3177   1.522   3.218   3.412
  259FEC      O 3178   1.453   3.168   3.305
  259FEC      C 3179   1.391   3.048   3.349
  259FEC      C 3180   1.385   3.066   3.497
  259FEC      F 3181   1.274   3.137   3.532
  259FEC      O 3182   1.496   3.147   3.527
  259FEC      H 3183   1.455   2.964   3.320
  259FEC      H 3184   1.292   3.038   3.304
  259FEC      H 3185   1.386   2.972   3.553
  260FEC      O 3186   1.893   2.467   2.225
  260FEC      C 3187   1.805   2.387   2.250
  260FEC      O 3188   1.816   2.252   2.232
  260FEC      C 3189   1.701   2.193   2.291
  260FEC      C 3190   1.603   2.306   2.291
  260FEC      F 3191   1.539   2.313   2.171
  260FEC      O 3192   1.683   2.422   2.302
  260FEC      H 3193   1.727   2.162   2.392
  260FEC      H 3194   1.668   2.109   2.231
  260FEC      H 3195   1.529   2.300   2.371
  261FEC      O 3196   2.380   3.167   3.411
  261FEC      C 3197   2.432   3.277   3.401
  261FEC      O 3198   2.501   3.320   3.292
  261FEC      C 3199   2.527   3.458   3.311
  261FEC      C 3200   2.517   3.472   3.460
  261FEC      F 3201   2.635   3.442   3.519
  261FEC      O 3202   2.424   3.373   3.498
  261FEC      H 3203   2.449   3.515   3.259
  261FEC      H 3204   2.626   3.484   3.274
  261FEC      H 3205   2.485   3.572   3.493
  262FEC      O 3206   2.854   0.873   1.623
  262FEC      C 3207   2.763   0.887   1.703
  262FEC      O 3208   2.683   0.997   1.710
  262FEC      C 3209   2.579   0.966   1.800
  262FEC      C 3210   2.638   0.856   1.882
  262FEC      F 3211   2.712   0.906   1.984
  262FEC      O 3212   2.727   0.791   1.794
  262FEC      H 3213   2.492   0.933   1.742
  262FEC      H 3214   2.554   1.054   1.861
  262FEC      H 3215   2.563   0.786   1.922
  263FEC      O 3216   2.842   2.873   1.904
  263FEC      C 3217   2.875   2.983   1.862
  263FEC      O 3218   2.925   3.007   1.738
  263FEC      C 3219   2.931   3.148   1.722
  263FEC      C 3220   2.934   3.196   1.863
  263FEC      F 3221   3.060   3.196   1.912
  263FEC      O 3222   2.862   3.098   1.935
  263FEC      H 3223   2.841   3.179   1.669
  263FEC      H 3224   3.021   3.176   1.667
  263FEC      H 3225   2.890   3.296   1.876
  264FEC      O 3226   0.676   2.566   1.127
  264FEC      C 3227   0.785   2.555   1.073
  264FEC      O 3228   0.878   2.656   1.066
  264FEC      C 3229   0.997   2.598   1.014
  264FEC      C 3230   0.945   2.477   0.943
  264FEC      F 3231   0.905   2.509   0.817
  264FEC      O 3232   0.830   2.440   1.014
  264FEC      H 3233   1.061   2.572   1.098
  264FEC      H 3234   1.046   2.668   0.947
  264FEC      H 3235   1.018   2.395   0.937
  265FEC      O 3236   3.587   0.799   3.316
  265FEC      C 3237   3.560   0.900   3.378
  265FEC      O 3238   3.593   1.027   3.338
  265FEC      C 3239   3.527   1.116   3.425
  265FEC      C 3240   3.502   1.032   3.546
  265FEC      F 3241   3.610   1.032   3.628
  265FEC      O 3242   3.489   0.901   3.495
  265FEC      H 3243   3.434   1.148   3.377
  265FEC      H 3244   3.590   1.202   3.447
  265FEC      H 3245   3.414   1.062   3.604
  266FEC      O 3246   0.704   2.897   2.018
  266FEC      C 3247   0.717   2.975   1.926
  266FEC      O 3248   0.818   3.067   1.916
  266FEC      C 3249   0.810   3.124   1.786
  266FEC      C 3250   0.667   3.098   1.749
  266FEC      F 3251   0.586   3.196   1.797
  266FEC      O 3252   0.634   2.980   1.817
  266FEC      H 3253   0.880   3.071   1.721
  266FEC      H 3254   0.833   3.230   1.790
  266FEC      H 3255   0.651   3.089   1.640
  267FEC      O 3256   2.245   0.545   0.615
  267FEC      C 3257   2.169   0.457   0.581
  267FEC      O 3258   2.042   0.478   0.536
  267FEC      C 3259   1.995   0.353   0.487
  267FEC      C 3260   2.081   0.255   0.559
  267FEC      F 3261   2.030   0.227   0.682
  267FEC      O 3262   2.202   0.324   0.579
  267FEC      H 3263   2.011   0.351   0.379
  267FEC      H 3264   1.889   0.341   0.511
  267FEC      H 3265   2.096   0.161   0.504
  268FEC      O 3266   0.114   0.979   2.965
  268FEC      C 3267   0.148   1.023   2.857
  268FEC      O 3268   0.180   0.947   2.748
  268FEC      C 3269   0.194   1.035   2.638
  268FEC      C 3270   0.223   1.166   2.705
  268FEC      F 3271   0.356   1.177   2.731
  268FEC      O 3272   0.157   1.157   2.828
  268FEC      H 3273   0.099   1.037   2.583
  268FEC      H 3274   0.276   1.002   2.573
  268FEC      H 3275   0.191   1.253   2.647
  269FEC      O 3276   0.281   2.105   2.994
  269FEC      C 3277   0.280   2.227   3.000
  269FEC      O 3278   0.329   2.299   3.106
  269FEC      C 3279   0.327   2.435   3.066
  269FEC      C 3280   0.225   2.436   2.957
  269FEC      F 3281   0.100   2.450   3.009
  269FEC      O 3282   0.232   2.308   2.901
  269FEC      H 3283   0.427   2.461   3.029
  269FEC      H 3284   0.300   2.499   3.150
  269FEC      H 3285   0.241   2.515   2.882
  270FEC      O 3286   2.268   3.196   3.151
  270FEC      C 3287   2.246   3.080   3.181
  270FEC      O 3288   2.177   3.041   3.292
  270FEC      C 3289   2.157   2.901   3.281
  270FEC      C 3290   2.266   2.860   3.188
  270FEC      F 3291   2.381   2.838   3.255
  270FEC      O 3292   2.287   2.973   3.106
  270FEC      H 3293   2.057   2.885   3.238
  270FEC      H 3294   2.165   2.854   3.379
  270FEC      H 3295   2.242   2.771   3.128
  271FEC      O 3296   0.496   2.221   0.415
  271FEC      C 3297   0.558   2.143   0.345
  271FEC      O 3298   0.678   2.170   0.286
  271FEC      C 3299   0.726   2.048   0.232
  271FEC      C 3300   0.601   1.967   0.218
  271FEC      F 3301   0.539   1.995   0.100
  271FEC      O 3302   0.517   2.014   0.321
  271FEC      H 3303   0.795   2.004   0.304
  271FEC      H 3304   0.775   2.065   0.136
  271FEC      H 3305   0.617   1.859   0.225
  272FEC      O 3306   3.929   1.627   0.217
  272FEC      C 3307   3.911   1.703   0.311
  272FEC      O 3308   3.833   1.674   0.419
  272FEC      C 3309   3.855   1.778   0.514
  272FEC      C 3310   3.904   1.890   0.428
  272FEC      F 3311   3.800   1.959   0.375
  272FEC      O 3312   3.970   1.826   0.321
  272FEC      H 3313   3.930   1.744   0.585
  272FEC      H 3314   3.762   1.802   0.565
  272FEC      H 3315   3.970   1.960   0.481
  273FEC      O 3316   0.524   1.676   2.488
  273FEC      C 3317   0.467   1.766   2.430
  273FEC      O 3318   0.444   1.768   2.295
  273FEC      C 3319   0.359   1.879   2.270
  273FEC      C 3320   0.384   1.967   2.388
  273FEC      F 3321   0.493   2.045   2.367
  273FEC      O 3322   0.417   1.877   2.492
  273FEC      H 3323   0.256   1.842   2.267
  273FEC      H 3324   0.386   1.926   2.176
  273FEC      H 3325   0.299   2.031   2.414
  274FEC      O 3326   2.736   1.871   2.028
  274FEC      C 3327   2.696   1.756   2.030
  274FEC      O 3328   2.768   1.649   1.985
  274FEC      C 3329   2.696   1.533   2.023
  274FEC      C 3330   2.557   1.585   2.041
  274FEC      F 3331   2.491   1.587   1.922
  274FEC      O 3332   2.575   1.719   2.081
  274FEC      H 3333   2.738   1.496   2.117
  274FEC      H 3334   2.702   1.457   1.945
  274FEC      H 3335   2.497   1.528   2.113
  275FEC      O 3336   2.801   2.029   3.581
  275FEC      C 3337   2.851   2.011   3.690
  275FEC      O 3338   2.908   1.893   3.731
  275FEC      C 3339   2.972   1.919   3.855
  275FEC      C 3340   2.900   2.040   3.904
  275FEC      F 3341   2.787   2.005   3.970
  275FEC      O 3342   2.861   2.108   3.787
  275FEC      H 3343   3.078   1.939   3.834
  275FEC      H 3344   2.961   1.833   3.921
  275FEC      H 3345   2.961   2.104   3.969
  276FEC      O 3346   1.488   1.230   1.160
  276FEC      C 3347   1.462   1.162   1.258
  276FEC      O 3348   1.417   1.212   1.377
  276FEC      C 3349   1.379   1.100   1.456
  276FEC      C 3350   1.457   0.988   1.395
  276FEC      F 3351   1.583   0.983   1.447
  276FEC      O 3352   1.470   1.025   1.259
  276FEC      H 3353   1.271   1.086   1.445
  276FEC      H 3354   1.406   1.117   1.561
  276FEC      H 3355   1.410   0.890   1.406
  277FEC      O 3356   1.923   0.698   0.813
  277FEC      C 3357   2.033   0.748   0.828
  277FEC      O 3358   2.134   0.692   0.900
  277FEC      C 3359   2.250   0.771   0.876
  277FEC      C 3360   2.192   0.902   0.833
  277FEC      F 3361   2.162   0.979   0.940
  277FEC      O 3362   2.070   0.867   0.771
  277FEC      H 3363   2.308   0.723   0.797
  277FEC      H 3364   2.309   0.780   0.967
  277FEC      H 3365   2.257   0.959   0.765
  278FEC      O 3366   1.051   2.033   2.138
  278FEC      C 3367   0.992   1.992   2.237
  278FEC      O 3368   0.873   1.926   2.234
  278FEC      C 3369   0.849   1.878   2.365
  278FEC      C 3370   0.934   1.969   2.449
  278FEC      F 3371   0.866   2.083   2.478
  278FEC      O 3372   1.041   2.004   2.364
  278FEC      H 3373   0.883   1.774   2.370
  278FEC      H 3374   0.743   1.885   2.390
  278FEC      H 3375   0.968   1.923   2.542
  279FEC      O 3376   1.863   1.197   2.176
  279FEC      C 3377   1.811   1.307   2.172
  279FEC      O 3378   1.730   1.350   2.071
  279FEC      C 3379   1.674   1.473   2.113
  279FEC      C 3380   1.771   1.520   2.217
  279FEC      F 3381   1.874   1.587   2.160
  279FEC      O 3382   1.823   1.401   2.271
  279FEC      H 3383   1.575   1.453   2.155
  279FEC      H 3384   1.666   1.542   2.029
  279FEC      H 3385   1.726   1.584   2.294
  280FEC      O 3386   3.236   1.527   3.610
  280FEC      C 3387   3.298   1.623   3.568
  280FEC      O 3388   3.245   1.748   3.553
  280FEC      C 3389   3.353   1.835   3.522
  280FEC      C 3390   3.456   1.741   3.467
  280FEC      F 3391   3.435   1.719   3.335
  280FEC      O 3392   3.431   1.619   3.534
  280FEC      H 3393   3.386   1.882   3.615
  280FEC      H 3394   3.322   1.910   3.449
  280FEC      H 3395   3.559   1.775   3.482
  281FEC      O 3396   1.699   2.892   1.869
  281FEC      C 3397   1.610   2.899   1.953
  281FEC      O 3398   1.631   2.929   2.084
  281FEC      C 3399   1.502   2.948   2.142
  281FEC      C 3400   1.413   2.872   2.050
  281FEC      F 3401   1.410   2.740   2.083
  281FEC      O 3402   1.477   2.881   1.924
  281FEC      H 3403   1.481   3.055   2.143
  281FEC      H 3404   1.501   2.908   2.244
  281FEC      H 3405   1.311   2.911   2.046
  282FEC      O 3406   3.217   3.355   1.989
  282FEC      C 3407   3.297   3.299   1.916
  282FEC      O 3408   3.266   3.195   1.833
  282FEC      C 3409   3.380   3.173   1.751
  282FEC      C 3410   3.490   3.232   1.833
  282FEC      F 3411   3.537   3.142   1.923
  282FEC      O 3412   3.428   3.336   1.906
  282FEC      H 3413   3.365   3.226   1.657
  282FEC      H 3414   3.394   3.066   1.734
  282FEC      H 3415   3.574   3.270   1.773
  283FEC      O 3416   1.021   1.259   2.863
  283FEC      C 3417   0.907   1.216   2.867
  283FEC      O 3418   0.856   1.141   2.970
  283FEC      C 3419   0.717   1.128   2.946
  283FEC      C 3420   0.706   1.152   2.799
  283FEC      F 3421   0.728   1.037   2.730
  283FEC      O 3422   0.813   1.239   2.770
  283FEC      H 3423   0.666   1.205   3.005
  283FEC      H 3424   0.683   1.029   2.975
  283FEC      H 3425   0.610   1.194   2.769
  284FEC      O 3426   2.488   2.642   1.530
  284FEC      C 3427   2.377   2.614   1.490
  284FEC      O 3428   2.270   2.699   1.495
  284FEC      C 3429   2.165   2.638   1.420
  284FEC      C 3430   2.204   2.494   1.423
  284FEC      F 3431   2.158   2.434   1.536
  284FEC      O 3432   2.344   2.495   1.430
  284FEC      H 3433   2.167   2.679   1.319
  284FEC      H 3434   2.069   2.656   1.468
  284FEC      H 3435   2.168   2.437   1.336
  285FEC      O 3436   1.504   2.062   1.452
  285FEC      C 3437   1.435   1.963   1.449
  285FEC      O 3438   1.300   1.962   1.469
  285FEC      C 3439   1.254   1.831   1.437
  285FEC      C 3440   1.378   1.749   1.453
  285FEC      F 3441   1.394   1.712   1.583
  285FEC      O 3442   1.483   1.837   1.421
  285FEC      H 3443   1.218   1.832   1.334
  285FEC      H 3444   1.175   1.802   1.506
  285FEC      H 3445   1.379   1.659   1.390
  286FEC      O 3446   1.506   3.555   0.818
  286FEC      C 3447   1.415   3.489   0.864
  286FEC      O 3448   1.400   3.354   0.846
  286FEC      C 3449   1.294   3.313   0.931
  286FEC      C 3450   1.218   3.439   0.952
  286FEC      F 3451   1.129   3.460   0.850
  286FEC      O 3452   1.315   3.541   0.943
  286FEC      H 3453   1.338   3.275   1.023
  286FEC      H 3454   1.235   3.236   0.881
  286FEC      H 3455   1.164   3.443   1.047
  287FEC      O 3456   1.860   3.470   3.829
  287FEC      C 3457   1.832   3.351   3.824
  287FEC      O 3458   1.917   3.253   3.782
  287FEC      C 3459   1.854   3.129   3.811
  287FEC      C 3460   1.710   3.167   3.819
  287FEC      F 3461   1.653   3.167   3.696
  287FEC      O 3462   1.711   3.300   3.865
  287FEC      H 3463   1.893   3.093   3.906
  287FEC      H 3464   1.874   3.057   3.731
  287FEC      H 3465   1.651   3.102   3.885
  288FEC      O 3466   0.489   0.683   3.584
  288FEC      C 3467   0.459   0.757   3.493
  288FEC      O 3468   0.548   0.832   3.421
  288FEC      C 3469   0.477   0.888   3.312
  288FEC      C 3470   0.336   0.885   3.360
  288FEC      F 3471   0.308   0.995   3.435
  288FEC      O 3472   0.331   0.773   3.446
  288FEC      H 3473   0.493   0.824   3.225
  288FEC      H 3474   0.512   0.990   3.292
  288FEC      H 3475   0.262   0.877   3.279
  289FEC      O 3476   2.574   3.325   1.728
  289FEC      C 3477   2.468   3.265   1.731
  289FEC      O 3478   2.455   3.130   1.722
  289FEC      C 3479   2.319   3.099   1.750
  289FEC      C 3480   2.250   3.228   1.721
  289FEC      F 3481   2.221   3.238   1.588
  289FEC      O 3482   2.347   3.327   1.749
  289FEC      H 3483   2.312   3.072   1.856
  289FEC      H 3484   2.285   3.018   1.686
  289FEC      H 3485   2.158   3.243   1.779
  290FEC      O 3486   0.940   1.847   3.571
  290FEC      C 3487   1.061   1.833   3.566
  290FEC      O 3488   1.148   1.928   3.520
  290FEC      C 3489   1.279   1.882   3.550
  290FEC      C 3490   1.259   1.734   3.563
  290FEC      F 3491   1.265   1.674   3.441
  290FEC      O 3492   1.126   1.721   3.609
  290FEC      H 3493   1.310   1.927   3.644
  290FEC      H 3494   1.347   1.908   3.469
  290FEC      H 3495   1.331   1.686   3.630
  291FEC      O 3496   3.969   1.671   2.643
  291FEC      C 3497   3.886   1.744   2.591
  291FEC      O 3498   3.768   1.700   2.537
  291FEC      C 3499   3.692   1.816   2.506
  291FEC      C 3500   3.797   1.922   2.494
  291FEC      F 3501   3.850   1.922   2.369
  291FEC      O 3502   3.899   1.880   2.582
  291FEC      H 3503   3.624   1.835   2.589
  291FEC      H 3504   3.637   1.801   2.413
  291FEC      H 3505   3.761   2.022   2.518
  292FEC      O 3506   2.531   2.182   1.896
  292FEC      C 3507   2.451   2.235   1.821
  292FEC      O 3508   2.475   2.351   1.753
  292FEC      C 3509   2.367   2.368   1.662
  292FEC      C 3510   2.259   2.285   1.723
  292FEC      F 3511   2.191   2.356   1.817
  292FEC      O 3512   2.328   2.182   1.791
  292FEC      H 3513   2.399   2.329   1.565
  292FEC      H 3514   2.340   2.473   1.655
  292FEC      H 3515   2.188   2.244   1.650
  293FEC      O 3516   0.799   3.144   2.949
  293FEC      C 3517   0.916   3.178   2.947
  293FEC      O 3518   1.019   3.106   3.001
  293FEC      C 3519   1.139   3.169   2.959
  293FEC      C 3520   1.095   3.307   2.926
  293FEC      F 3521   1.093   3.385   3.038
  293FEC      O 3522   0.961   3.292   2.885
  293FEC      H 3523   1.176   3.115   2.872
  293FEC      H 3524   1.213   3.166   3.040
  293FEC      H 3525   1.156   3.356   2.850
  294FEC      O 3526   1.650   1.487   0.138
  294FEC      C 3527   1.676   1.394   0.213
  294FEC      O 3528   1.607   1.365   0.327
  294FEC      C 3529   1.655   1.239   0.373
  294FEC      C 3530   1.790   1.232   0.310
  294FEC      F 3531   1.883   1.296   0.386
  294FEC      O 3532   1.777   1.305   0.190
  294FEC      H 3533   1.588   1.161   0.336
  294FEC      H 3534   1.660   1.239   0.482
  294FEC      H 3535   1.825   1.129   0.291
  295FEC      O 3536   2.805   0.346   2.687
  295FEC      C 3537   2.815   0.467   2.698
  295FEC      O 3538   2.720   0.557   2.659
  295FEC      C 3539   2.761   0.684   2.708
  295FEC      C 3540   2.908   0.666   2.726
  295FEC      F 3541   2.973   0.690   2.609
  295FEC      O 3542   2.923   0.529   2.755
  295FEC      H 3543   2.709   0.702   2.803
  295FEC      H 3544   2.736   0.761   2.635
  295FEC      H 3545   2.951   0.730   2.804
  296FEC      O 3546   3.953   2.580   2.039
  296FEC      C 3547   3.917   2.464   2.049
  296FEC      O 3548   3.970   2.375   2.138
  296FEC      C 3549   3.888   2.259   2.132
  296FEC      C 3550   3.824   2.271   1.997
  296FEC      F 3551   3.905   2.219   1.901
  296FEC      O 3552   3.817   2.409   1.975
  296FEC      H 3553   3.815   2.265   2.213
  296FEC      H 3554   3.949   2.169   2.141
  296FEC      H 3555   3.726   2.222   1.991
  297FEC      O 3556   2.377   2.042   2.791
  297FEC      C 3557   2.300   2.123   2.839
  297FEC      O 3558   2.333   2.211   2.938
  297FEC      C 3559   2.223   2.301   2.951
  297FEC      C 3560   2.110   2.222   2.893
  297FEC      F 3561   2.055   2.141   2.987
  297FEC      O 3562   2.171   2.139   2.797
  297FEC      H 3563   2.246   2.390   2.893
  297FEC      H 3564   2.207   2.325   3.056
  297FEC      H 3565   2.031   2.285   2.849
  298FEC      O 3566   2.098   0.935   3.673
  298FEC      C 3567   2.086   1.055   3.654
  298FEC      O 3568   2.009   1.111   3.556
  298FEC      C 3569   2.006   1.251   3.581
  298FEC      C 3570   2.129   1.272   3.663
  298FEC      F 3571   2.238   1.288   3.583
  298FEC      O 3572   2.146   1.151   3.732
  298FEC      H 3573   1.915   1.273   3.636
  298FEC      H 3574   2.009   1.306   3.487
  298FEC      H 3575   2.122   1.357   3.731
  299FEC      O 3576   3.867   2.974   1.000
  299FEC      C 3577   3.854   2.945   1.118
  299FEC      O 3578   3.869   2.819   1.168
  299FEC      C 3579   3.867   2.831   1.310
  299FEC      C 3580   3.794   2.960   1.330
  299FEC      F 3581   3.660   2.940   1.329
  299FEC      O 3582   3.826   3.036   1.216
  299FEC      H 3583   3.970   2.835   1.345
  299FEC      H 3584   3.814   2.746   1.353
  299FEC      H 3585   3.822   3.011   1.423
  300FEC      O 3586   0.390   0.839   1.211
  300FEC      C 3587   0.349   0.725   1.200
  300FEC      O 3588   0.427   0.617   1.169
  300FEC      C 3589   0.346   0.502   1.186
  300FEC      C 3590   0.207   0.557   1.173
  300FEC      F 3591   0.171   0.564   1.042
  300FEC      O 3592   0.218   0.689   1.220
  300FEC      H 3593   0.364   0.461   1.286
  300FEC      H 3594   0.369   0.428   1.109
  300FEC      H 3595   0.132   0.500   1.228
  301FEC      O 3596   2.996   1.928   1.427
  301FEC      C 3597   2.938   1.958   1.325
  301FEC      O 3598   2.997   2.023   1.220
  301FEC      C 3599   2.903   2.022   1.113
  301FEC      C 3600   2.773   2.003   1.185
  301FEC      F 3601   2.724   2.122   1.227
  301FEC      O 3602   2.807   1.929   1.300
  301FEC      H 3603   2.927   1.937   1.048
  301FEC      H 3604   2.907   2.116   1.058
  301FEC      H 3605   2.696   1.952   1.125
  302FEC      O 3606   0.943   2.119   1.706
  302FEC      C 3607   0.838   2.060   1.694
  302FEC      O 3608   0.728   2.110   1.630
  302FEC      C 3609   0.634   2.003   1.619
  302FEC      C 3610   0.678   1.911   1.729
  302FEC      F 3611   0.622   1.948   1.847
  302FEC      O 3612   0.816   1.932   1.740
  302FEC      H 3613   0.646   1.958   1.521
  302FEC      H 3614   0.533   2.040   1.634
  302FEC      H 3615   0.654   1.806   1.710
  303FEC      O 3616   3.325   3.672   1.339
  303FEC      C 3617   3.392   3.695   1.240
  303FEC      O 3618   3.384   3.809   1.165
  303FEC      C 3619   3.491   3.806   1.072
  303FEC      C 3620   3.523   3.660   1.065
  303FEC      F 3621   3.443   3.598   0.974
  303FEC      O 3622   3.489   3.610   1.192
  303FEC      H 3623   3.574   3.864   1.114
  303FEC      H 3624   3.460   3.847   0.977
  303FEC      H 3625   3.628   3.639   1.040
  304FEC      O 3626   1.461   2.983   0.507
  304FEC      C 3627   1.539   3.064   0.459
  304FEC      O 3628   1.504   3.163   0.371
  304FEC      C 3629   1.618   3.246   0.357
  304FEC      C 3630   1.730   3.156   0.397
  304FEC      F 3631   1.772   3.081   0.292
  304FEC      O 3632   1.672   3.068   0.491
  304FEC      H 3633   1.606   3.331   0.425
  304FEC      H 3634   1.627   3.280   0.253
  304FEC      H 3635   1.816   3.210   0.439
  305FEC      O 3636   2.987   2.191   2.822
  305FEC      C 3637   3.103   2.162   2.841
  305FEC      O 3638   3.182   2.221   2.936
  305FEC      C 3639   3.303   2.146   2.941
  305FEC      C 3640   3.306   2.081   2.806
  305FEC      F 3641   3.360   2.164   2.714
  305FEC      O 3642   3.170   2.064   2.772
  305FEC      H 3643   3.294   2.073   3.022
  305FEC      H 3644   3.388   2.212   2.957
  305FEC      H 3645   3.360   1.985   2.805
  306FEC      O 3646   1.821   1.887   0.848
  306FEC      C 3647   1.734   1.952   0.792
  306FEC      O 3648   1.618   1.900   0.742
  306FEC      C 3649   1.537   2.009   0.705
  306FEC      C 3650   1.636   2.119   0.685
  306FEC      F 3651   1.689   2.114   0.560
  306FEC      O 3652   1.741   2.088   0.775
  306FEC      H 3653   1.468   2.030   0.787
  306FEC      H 3654   1.482   1.986   0.613
  306FEC      H 3655   1.596   2.219   0.703
  307FEC      O 3656   1.124   0.984   0.908
  307FEC      C 3657   1.123   1.066   0.998
  307FEC      O 3658   1.229   1.092   1.080
  307FEC      C 3659   1.195   1.206   1.157
  307FEC      C 3660   1.045   1.205   1.151
  307FEC      F 3661   0.994   1.124   1.248
  307FEC      O 3662   1.015   1.146   1.027
  307FEC      H 3663   1.237   1.294   1.108
  307FEC      H 3664   1.233   1.196   1.259
  307FEC      H 3665   1.000   1.305   1.161
  308FEC      O 3666   3.710   1.778   1.677
  308FEC      C 3667   3.590   1.789   1.699
  308FEC      O 3668   3.537   1.853   1.807
  308FEC      C 3669   3.397   1.861   1.784
  308FEC      C 3670   3.373   1.750   1.688
  308FEC      F 3671   3.356   1.632   1.753
  308FEC      O 3672   3.493   1.740   1.615
  308FEC      H 3673   3.375   1.959   1.741
  308FEC      H 3674   3.343   1.847   1.878
  308FEC      H 3675   3.287   1.767   1.622
  309FEC      O 3676   1.574   1.777   3.491
  309FEC      C 3677   1.564   1.898   3.504
  309FEC      O 3678   1.548   1.962   3.623
  309FEC      C 3679   1.561   2.101   3.598
  309FEC      C 3680   1.530   2.110   3.452
  309FEC      F 3681   1.396   2.119   3.432
  309FEC      O 3682   1.571   1.986   3.399
  309FEC      H 3683   1.664   2.130   3.620
  309FEC      H 3684   1.491   2.157   3.659
  309FEC      H 3685   1.579   2.195   3.402
  310FEC      O 3686   0.471   0.780   3.965
  310FEC      C 3687   0.372   0.847   3.939
  310FEC      O 3688   0.260   0.798   3.877
  310FEC      C 3689   0.162   0.901   3.884
  310FEC      C 3690   0.244   1.024   3.903
  310FEC      F 3691   0.287   1.072   3.783
  310FEC      O 3692   0.359   0.979   3.972
  310FEC      H 3693   0.098   0.880   3.970
  310FEC      H 3694   0.104   0.903   3.792
  310FEC      H 3695   0.192   1.104   3.957
  311FEC      O 3696   3.249   0.849   0.604
  311FEC      C 3697   3.303   0.957   0.608
  311FEC      O 3698   3.437   0.978   0.588
  311FEC      C 3699   3.456   1.118   0.581
  311FEC      C 3700   3.337   1.171   0.653
  311FEC      F 3701   3.359   1.175   0.787
  311FEC      O 3702   3.236   1.075   0.630
  311FEC      H 3703   3.457   1.147   0.476
  311FEC      H 3704   3.550   1.146   0.630
  311FEC      H 3705   3.306   1.271   0.620
  312FEC      O 3706   0.969   3.541   1.078
  312FEC      C 3707   0.942   3.647   1.024
  312FEC      O 3708   0.855   3.739   1.075
  312FEC      C 3709   0.866   3.855   0.994
  312FEC      C 3710   0.920   3.800   0.866
  312FEC      F 3711   0.820   3.754   0.787
  312FEC      O 3712   0.997   3.689   0.906
  312FEC      H 3713   0.935   3.924   1.042
  312FEC      H 3714   0.768   3.901   0.981
  312FEC      H 3715   0.980   3.873   0.809
  313FEC      O 3716   3.091   3.293   2.652
  313FEC      C 3717   3.198   3.242   2.621
  313FEC      O 3718   3.319   3.305   2.633
  313FEC      C 3719   3.419   3.207   2.607
  313FEC      C 3720   3.344   3.104   2.528
  313FEC      F 3721   3.342   3.137   2.396
  313FEC      O 3722   3.211   3.114   2.575
  313FEC      H 3723   3.453   3.168   2.703
  313FEC      H 3724   3.501   3.250   2.551
  313FEC      H 3725   3.384   3.003   2.539
  314FEC      O 3726   1.441   1.489   3.188
  314FEC      C 3727   1.353   1.549   3.128
  314FEC      O 3728   1.251   1.617   3.188
  314FEC      C 3729   1.183   1.688   3.085
  314FEC      C 3730   1.219   1.610   2.962
  314FEC      F 3731   1.135   1.505   2.946
  314FEC      O 3732   1.347   1.557   2.991
  314FEC      H 3733   1.223   1.790   3.082
  314FEC      H 3734   1.076   1.688   3.104
  314FEC      H 3735   1.220   1.670   2.871
  315FEC      O 3736   3.224   2.485   1.625
  315FEC      C 3737   3.213   2.433   1.735
  315FEC      O 3738   3.163   2.496   1.845
  315FEC      C 3739   3.147   2.397   1.946
  315FEC      C 3740   3.243   2.291   1.902
  315FEC      F 3741   3.368   2.317   1.947
  315FEC      O 3742   3.246   2.303   1.761
  315FEC      H 3743   3.043   2.362   1.943
  315FEC      H 3744   3.172   2.438   2.043
  315FEC      H 3745   3.214   2.190   1.934
  316FEC      O 3746   0.414   1.815   2.774
  316FEC      C 3747   0.441   1.820   2.893
  316FEC      O 3748   0.519   1.729   2.958
  316FEC      C 3749   0.543   1.781   3.088
  316FEC      C 3750   0.429   1.876   3.106
  316FEC      F 3751   0.319   1.811   3.152
  316FEC      O 3752   0.399   1.921   2.976
  316FEC      H 3753   0.640   1.832   3.086
  316FEC      H 3754   0.543   1.700   3.161
  316FEC      H 3755   0.452   1.959   3.174
  317FEC      O 3756   2.403   3.963   2.894
  317FEC      C 3757   2.449   3.923   2.999
  317FEC      O 3758   2.555   3.837   3.009
  317FEC      C 3759   2.591   3.831   3.146
  317FEC      C 3760   2.465   3.874   3.215
  317FEC      F 3761   2.382   3.768   3.231
  317FEC      O 3762   2.403   3.961   3.123
  317FEC      H 3763   2.673   3.902   3.163
  317FEC      H 3764   2.621   3.730   3.173
  317FEC      H 3765   2.482   3.922   3.312
  318FEC      O 3766   0.561   1.693   1.546
  318FEC      C 3767   0.443   1.665   1.559
  318FEC      O 3768   0.378   1.661   1.679
  318FEC      C 3769   0.239   1.646   1.650
  318FEC      C 3770   0.241   1.587   1.513
  318FEC      F 3771   0.255   1.452   1.519
  318FEC      O 3772   0.359   1.638   1.454
  318FEC      H 3773   0.193   1.745   1.651
  318FEC      H 3774   0.193   1.580   1.723
  318FEC      H 3775   0.153   1.611   1.453
  319FEC      O 3776   0.972   0.481   3.943
  319FEC      C 3777   0.964   0.366   3.903
  319FEC      O 3778   1.072   0.285   3.880
  319FEC      C 3779   1.021   0.155   3.855
  319FEC      C 3780   0.880   0.183   3.812
  319FEC      F 3781   0.875   0.210   3.679
  319FEC      O 3782   0.846   0.301   3.880
  319FEC      H 3783   1.025   0.099   3.949
  319FEC      H 3784   1.079   0.106   3.777
  319FEC      H 3785   0.810   0.101   3.834
  320FEC      O 3786   0.722   3.967   0.195
  320FEC      C 3787   0.742   3.886   0.284
  320FEC      O 3788   0.678   3.765   0.293
  320FEC      C 3789   0.743   3.693   0.397
  320FEC      C 3790   0.807   3.801   0.477
  320FEC      F 3791   0.719   3.852   0.568
  320FEC      O 3792   0.833   3.903   0.384
  320FEC      H 3793   0.817   3.627   0.350
  320FEC      H 3794   0.670   3.635   0.454
  320FEC      H 3795   0.898   3.769   0.530
  321FEC      O 3796   3.961   2.453   0.172
  321FEC      C 3797   3.841   2.467   0.175
  321FEC      O 3798   3.777   2.577   0.225
  321FEC      C 3799   3.639   2.564   0.192
  321FEC      C 3800   3.625   2.416   0.172
  321FEC      F 3801   3.604   2.354   0.291
  321FEC      O 3802   3.752   2.375   0.126
  321FEC      H 3803   3.621   2.619   0.100
  321FEC      H 3804   3.578   2.601   0.274
  321FEC      H 3805   3.545   2.388   0.103
  322FEC      O 3806   1.522   1.244   0.663
  322FEC      C 3807   1.606   1.210   0.744
  322FEC      O 3808   1.580   1.178   0.874
  322FEC      C 3809   1.700   1.125   0.928
  322FEC      C 3810   1.804   1.183   0.838
  322FEC      F 3811   1.840   1.307   0.880
  322FEC      O 3812   1.739   1.197   0.714
  322FEC      H 3813   1.695   1.016   0.922
  322FEC      H 3814   1.712   1.157   1.032
  322FEC      H 3815   1.895   1.121   0.830
  323FEC      O 3816   3.086   2.951   0.931
  323FEC      C 3817   3.090   2.911   1.046
  323FEC      O 3818   3.023   2.969   1.150
  323FEC      C 3819   3.037   2.881   1.261
  323FEC      C 3820   3.159   2.803   1.226
  323FEC      F 3821   3.271   2.870   1.265
  323FEC      O 3822   3.160   2.800   1.085
  323FEC      H 3823   2.948   2.818   1.266
  323FEC      H 3824   3.048   2.938   1.353
  323FEC      H 3825   3.161   2.702   1.270
  324FEC      O 3826   2.710   2.177   2.419
  324FEC      C 3827   2.697   2.290   2.377
  324FEC      O 3828   2.717   2.327   2.246
  324FEC      C 3829   2.672   2.461   2.234
  324FEC      C 3830   2.681   2.511   2.375
  324FEC      F 3831   2.806   2.555   2.403
  324FEC      O 3832   2.658   2.396   2.454
  324FEC      H 3833   2.569   2.459   2.197
  324FEC      H 3834   2.737   2.516   2.167
  324FEC      H 3835   2.609   2.591   2.398
  325FEC      O 3836   2.594   2.061   3.486
  325FEC      C 3837   2.476   2.062   3.518
  325FEC      O 3838   2.386   1.964   3.485
  325FEC      C 3839   2.267   1.992   3.557
  325FEC      C 3840   2.280   2.138   3.586
  325FEC      F 3841   2.234   2.212   3.482
  325FEC      O 3842   2.419   2.160   3.595
  325FEC      H 3843   2.268   1.931   3.648
  325FEC      H 3844   2.180   1.969   3.496
  325FEC      H 3845   2.228   2.169   3.678
  326FEC      O 3846   0.370   0.564   2.080
  326FEC      C 3847   0.418   0.453   2.098
  326FEC      O 3848   0.356   0.336   2.067
  326FEC      C 3849   0.452   0.233   2.084
  326FEC      C 3850   0.550   0.295   2.179
  326FEC      F 3851   0.509   0.279   2.307
  326FEC      O 3852   0.543   0.432   2.150
  326FEC      H 3853   0.496   0.211   1.987
  326FEC      H 3854   0.404   0.144   2.126
  326FEC      H 3855   0.652   0.255   2.168
  327FEC      O 3856   3.529   0.701   0.106
  327FEC      C 3857   3.508   0.817   0.136
  327FEC      O 3858   3.396   0.887   0.100
  327FEC      C 3859   3.399   1.009   0.171
  327FEC      C 3860   3.545   1.024   0.203
  327FEC      F 3861   3.611   1.082   0.100
  327FEC      O 3862   3.592   0.892   0.214
  327FEC      H 3863   3.338   0.998   0.261
  327FEC      H 3864   3.362   1.090   0.109
  327FEC      H 3865   3.564   1.082   0.295
  328FEC      O 3866   0.100   1.251   2.246
  328FEC      C 3867   0.166   1.188   2.166
  328FEC      O 3868   0.114   1.105   2.071
  328FEC      C 3869   0.221   1.068   1.985
  328FEC      C 3870   0.341   1.091   2.071
  328FEC      F 3871   0.366   0.983   2.149
  328FEC      O 3872   0.303   1.196   2.157
  328FEC      H 3873   0.218   1.134   1.898
  328FEC      H 3874   0.210   0.964   1.955
  328FEC      H 3875   0.431   1.116   2.014
  329FEC      O 3876   1.536   0.772   1.269
  329FEC      C 3877   1.624   0.688   1.269
  329FEC      O 3878   1.612   0.564   1.326
  329FEC      C 3879   1.726   0.490   1.286
  329FEC      C 3880   1.825   0.597   1.253
  329FEC      F 3881   1.890   0.639   1.364
  329FEC      O 3882   1.745   0.705   1.208
  329FEC      H 3883   1.699   0.430   1.199
  329FEC      H 3884   1.760   0.426   1.368
  329FEC      H 3885   1.899   0.567   1.178
  330FEC      O 3886   2.892   3.250   0.442
  330FEC      C 3887   2.789   3.185   0.451
  330FEC      O 3888   2.773   3.060   0.397
  330FEC      C 3889   2.649   3.011   0.446
  330FEC      C 3890   2.576   3.136   0.482
  330FEC      F 3891   2.513   3.188   0.373
  330FEC      O 3892   2.677   3.227   0.518
  330FEC      H 3893   2.669   2.948   0.533
  330FEC      H 3894   2.598   2.953   0.368
  330FEC      H 3895   2.502   3.123   0.562
  331FEC      O 3896   2.193   2.547   0.100
  331FEC      C 3897   2.085   2.592   0.133
  331FEC      O 3898   1.965   2.536   0.100
  331FEC      C 3899   1.866   2.606   0.174
  331FEC      C 3900   1.933   2.736   0.203
  331FEC      F 3901   1.917   2.823   0.100
  331FEC      O 3902   2.070   2.704   0.211
  331FEC      H 3903   1.844   2.549   0.264
  331FEC      H 3904   1.776   2.618   0.113
  331FEC      H 3905   1.897   2.784   0.296
  332FEC      O 3906   2.195   1.678   3.943
  332FEC      C 3907   2.121   1.773   3.922
  332FEC      O 3908   1.996   1.762   3.869
  332FEC      C 3909   1.936   1.890   3.880
  332FEC      C 3910   2.054   1.981   3.889
  332FEC      F 3911   2.101   2.012   3.765
  332FEC      O 3912   2.153   1.903   3.952
  332FEC      H 3913   1.875   1.892   3.970
  332FEC      H 3914   1.875   1.911   3.792
  332FEC      H 3915   2.034   2.074   3.944
  333FEC      O 3916   3.127   3.829   3.786
  333FEC      C 3917   3.085   3.719   3.755
  333FEC      O 3918   3.162   3.606   3.747
  333FEC      C 3919   3.073   3.497   3.728
  333FEC      C 3920   2.952   3.563   3.670
  333FEC      F 3921   2.964   3.578   3.536
  333FEC      O 3922   2.954   3.693   3.726
  333FEC      H 3923   3.053   3.452   3.825
  333FEC      H 3924   3.117   3.424   3.659
  333FEC      H 3925   2.858   3.511   3.692
  334FEC      O 3926   1.883   1.575   1.430
  334FEC      C 3927   1.979   1.645   1.407
  334FEC      O 3928   1.972   1.777   1.371
  334FEC      C 3929   2.105   1.827   1.373
  334FEC      C 3930   2.187   1.703   1.358
  334FEC      F 3931   2.201   1.671   1.227
  334FEC      O 3932   2.109   1.602   1.418
  334FEC      H 3933   2.121   1.876   1.470
  334FEC      H 3934   2.120   1.897   1.291
  334FEC      H 3935   2.286   1.710   1.404
  335FEC      O 3936   1.154   3.948   2.777
  335FEC      C 3937   1.197   3.834   2.772
  335FEC      O 3938   1.185   3.752   2.663
  335FEC      C 3939   1.264   3.637   2.690
  335FEC      C 3940   1.272   3.637   2.839
  335FEC      F 3941   1.164   3.575   2.893
  335FEC      O 3942   1.265   3.773   2.874
  335FEC      H 3943   1.362   3.651   2.643
  335FEC      H 3944   1.215   3.548   2.650
  335FEC      H 3945   1.363   3.589   2.878
  336FEC      O 3946   2.052   3.965   3.308
  336FEC      C 3947   2.077   3.914   3.416
  336FEC      O 3948   2.179   3.954   3.498
  336FEC      C 3949   2.163   3.886   3.621
  336FEC      C 3950   2.081   3.767   3.581
  336FEC      F 3951   2.161   3.667   3.535
  336FEC      O 3952   2.005   3.812   3.472
  336FEC      H 3953   2.109   3.952   3.689
  336FEC      H 3954   2.260   3.858   3.661
  336FEC      H 3955   2.018   3.728   3.662
  337FEC      O 3956   0.287   3.415   2.434
  337FEC      C 3957   0.405   3.383   2.436
  337FEC      O 3958   0.508   3.465   2.400
  337FEC      C 3959   0.628   3.398   2.435
  337FEC      C 3960   0.585   3.255   2.439
  337FEC      F 3961   0.590   3.200   2.315
  337FEC      O 3962   0.449   3.260   2.477
  337FEC      H 3963   0.660   3.434   2.533
  337FEC      H 3964   0.705   3.416   2.360
  337FEC      H 3965   0.644   3.193   2.508
  338FEC      O 3966   3.361   0.650   2.057
  338FEC      C 3967   3.450   0.610   2.131
  338FEC      O 3968   3.519   0.494   2.114
  338FEC      C 3969   3.625   0.495   2.208
  338FEC      C 3970   3.576   0.590   2.312
  338FEC      F 3971   3.497   0.526   2.402
  338FEC      O 3972   3.494   0.680   2.241
  338FEC      H 3973   3.715   0.532   2.157
  338FEC      H 3974   3.641   0.394   2.247
  338FEC      H 3975   3.656   0.642   2.366
  339FEC      O 3976   2.609   3.247   3.618
  339FEC      C 3977   2.591   3.131   3.585
  339FEC      O 3978   2.474   3.063   3.602
  339FEC      C 3979   2.488   2.940   3.533
  339FEC      C 3980   2.636   2.923   3.525
  339FEC      F 3981   2.684   2.864   3.638
  339FEC      O 3982   2.686   3.055   3.522
  339FEC      H 3983   2.442   2.951   3.434
  339FEC      H 3984   2.439   2.860   3.588
  339FEC      H 3985   2.669   2.865   3.438
  340FEC      O 3986   3.770   3.260   1.541
  340FEC      C 3987   3.724   3.372   1.535
  340FEC      O 3988   3.799   3.487   1.542
  340FEC      C 3989   3.711   3.595   1.512
  340FEC      C 3990   3.577   3.537   1.543
  340FEC      F 3991   3.549   3.551   1.676
  340FEC      O 3992   3.591   3.399   1.518
  340FEC      H 3993   3.722   3.618   1.406
  340FEC      H 3994   3.735   3.681   1.574
  340FEC      H 3995   3.495   3.581   1.485
  341PF6      F 3996   2.284   1.058   1.299
  341PF6      P 3997   2.336   1.033   1.146
  341PF6      F 3998   2.218   1.130   1.090
  341PF6      F 3999   2.435   1.162   1.159
  341PF6      F 4000   2.388   1.008   0.993
  341PF6      F 4001   2.454   0.936   1.202
  341PF6      F 4002   2.237   0.904   1.133
  342PF6      F 4003   1.239   3.775   3.462
  342PF6      P 4004   1.284   3.791   3.306
  342PF6      F 4005   1.433   3.837   3.354
  342PF6      F 4006   1.333   3.635   3.305
  342PF6      F 4007   1.329   3.807   3.151
  342PF6      F 4008   1.135   3.745   3.258
  342PF6      F 4009   1.235   3.947   3.308
  343PF6      F 4010   1.455   3.484   0.202
  343PF6      P 4011   1.362   3.581   0.294
  343PF6      F 4012   1.327   3.455   0.391
  343PF6      F 4013   1.491   3.617   0.387
  343PF6      F 4014   1.269   3.679   0.386
  343PF6      F 4015   1.397   3.707   0.197
  343PF6      F 4016   1.233   3.546   0.201
  344PF6      F 4017   2.307   1.214   1.977
  344PF6      P 4018   2.266   1.203   1.819
  344PF6      F 4019   2.109   1.196   1.860
  344PF6      F 4020   2.256   1.366   1.810
  344PF6      F 4021   2.226   1.192   1.662
  344PF6      F 4022   2.424   1.211   1.778
  344PF6      F 4023   2.277   1.041   1.828
  345PF6      F 4024   2.574   1.875   1.638
  345PF6      P 4025   2.500   1.865   1.783
  345PF6      F 4026   2.599   1.980   1.841
  345PF6      F 4027   2.394   1.980   1.736
  345PF6      F 4028   2.426   1.855   1.928
  345PF6      F 4029   2.401   1.750   1.724
  345PF6      F 4030   2.606   1.750   1.829
  346PF6      F 4031   0.748   1.184   2.332
  346PF6      P 4032   0.735   1.333   2.394
  346PF6      F 4033   0.612   1.283   2.489
  346PF6      F 4034   0.841   1.294   2.511
  346PF6      F 4035   0.721   1.483   2.457
  346PF6      F 4036   0.857   1.384   2.300
  346PF6      F 4037   0.628   1.373   2.278
  347PF6      F 4038   3.056   0.731   0.326
  347PF6      P 4039   3.216   0.759   0.318
  347PF6      F 4040   3.237   0.618   0.239
  347PF6      F 4041   3.196   0.836   0.176
  347PF6      F 4042   3.376   0.787   0.310
  347PF6      F 4043   3.195   0.900   0.397
  347PF6      F 4044   3.236   0.682   0.460
  348PF6      F 4045   3.470   3.295   2.309
  348PF6      P 4046   3.544   3.186   2.213
  348PF6      F 4047   3.547   3.079   2.337
  348PF6      F 4048   3.398   3.128   2.167
  348PF6      F 4049   3.617   3.076   2.117
  348PF6      F 4050   3.541   3.292   2.090
  348PF6      F 4051   3.689   3.243   2.259
  349PF6      F 4052   3.596   0.545   2.604
  349PF6      P 4053   3.483   0.630   2.686
  349PF6      F 4054   3.474   0.511   2.797
  349PF6      F 4055   3.600   0.702   2.773
  349PF6      F 4056   3.370   0.715   2.767
  349PF6      F 4057   3.492   0.749   2.575
  349PF6      F 4058   3.365   0.558   2.599
  350PF6      F 4059   3.792   0.780   3.394
  350PF6      P 4060   3.866   0.650   3.460
  350PF6      F 4061   3.967   0.643   3.332
  350PF6      F 4062   3.970   0.749   3.537
  350PF6      F 4063   3.939   0.521   3.526
  350PF6      F 4064   3.764   0.657   3.587
  350PF6      F 4065   3.761   0.552   3.382
  351PF6      F 4066   2.781   2.848   3.186
  351PF6      P 4067   2.935   2.803   3.211
  351PF6      F 4068   2.920   2.841   3.369
  351PF6      F 4069   2.886   2.651   3.243
  351PF6      F 4070   3.090   2.758   3.236
  351PF6      F 4071   2.950   2.765   3.053
  351PF6      F 4072   2.985   2.955   3.179
  352PF6      F 4073   2.871   3.075   2.355
  352PF6      P 4074   2.711   3.106   2.349
  352PF6      F 4075   2.679   2.950   2.384
  352PF6      F 4076   2.712   3.141   2.509
  352PF6      F 4077   2.551   3.137   2.344
  352PF6      F 4078   2.742   3.263   2.315
  352PF6      F 4079   2.709   3.072   2.190
  353PF6      F 4080   2.424   3.199   1.515
  353PF6      P 4081   2.486   3.332   1.445
  353PF6      F 4082   2.632   3.299   1.510
  353PF6      F 4083   2.525   3.244   1.313
  353PF6      F 4084   2.548   3.465   1.374
  353PF6      F 4085   2.340   3.365   1.379
  353PF6      F 4086   2.447   3.420   1.576
  354PF6      F 4087   3.396   2.816   2.928
  354PF6      P 4088   3.472   2.893   2.806
  354PF6      F 4089   3.422   2.777   2.702
  354PF6      F 4090   3.336   2.978   2.775
  354PF6      F 4091   3.547   2.970   2.683
  354PF6      F 4092   3.521   3.009   2.909
  354PF6      F 4093   3.608   2.808   2.836
  355PF6      F 4094   0.951   1.414   2.024
  355PF6      P 4095   0.985   1.256   2.006
  355PF6      F 4096   1.097   1.293   1.894
  355PF6      F 4097   1.099   1.267   2.123
  355PF6      F 4098   1.020   1.097   1.987
  355PF6      F 4099   0.873   1.218   2.118
  355PF6      F 4100   0.872   1.244   1.889
  356PF6      F 4101   1.491   3.370   3.684
  356PF6      P 4102   1.341   3.426   3.655
  356PF6      F 4103   1.349   3.370   3.502
  356PF6      F 4104   1.278   3.284   3.704
  356PF6      F 4105   1.190   3.482   3.625
  356PF6      F 4106   1.332   3.482   3.807
  356PF6      F 4107   1.403   3.568   3.606
  357PF6      F 4108   0.969   0.870   2.697
  357PF6      P 4109   0.909   0.742   2.776
  357PF6      F 4110   0.982   0.642   2.670
  357PF6      F 4111   1.041   0.738   2.871
  357PF6      F 4112   0.848   0.613   2.856
  357PF6      F 4113   0.835   0.841   2.882
  357PF6      F 4114   0.776   0.745   2.681
  358PF6      F 4115   0.852   2.182   0.420
  358PF6      P 4116   0.900   2.315   0.502
  358PF6      F 4117   1.053   2.289   0.452
  358PF6      F 4118   0.873   2.406   0.369
  358PF6      F 4119   0.948   2.447   0.583
  358PF6      F 4120   0.747   2.340   0.551
  358PF6      F 4121   0.927   2.223   0.634
  359PF6      F 4122   1.365   1.967   1.240
  359PF6      P 4123   1.245   2.021   1.143
  359PF6      F 4124   1.345   2.010   1.015
  359PF6      F 4125   1.197   1.867   1.118
  359PF6      F 4126   1.126   2.075   1.047
  359PF6      F 4127   1.146   2.031   1.272
  359PF6      F 4128   1.294   2.174   1.169
  360PF6      F 4129   3.047   0.625   2.329
  360PF6      P 4130   3.101   0.676   2.184
  360PF6      F 4131   2.951   0.665   2.123
  360PF6      F 4132   3.073   0.830   2.227
  360PF6      F 4133   3.156   0.727   2.039
  360PF6      F 4134   3.252   0.687   2.245
  360PF6      F 4135   3.130   0.522   2.141
  361PF6      F 4136   1.749   0.482   0.414
  361PF6      P 4137   1.792   0.534   0.266
  361PF6      F 4138   1.755   0.687   0.308
  361PF6      F 4139   1.944   0.556   0.318
  361PF6      F 4140   1.835   0.586   0.117
  361PF6      F 4141   1.829   0.381   0.223
  361PF6      F 4142   1.639   0.511   0.214
  362PF6      F 4143   3.545   2.417   2.643
  362PF6      P 4144   3.513   2.516   2.769
  362PF6      F 4145   3.653   2.471   2.840
  362PF6      F 4146   3.592   2.637   2.692
  362PF6      F 4147   3.482   2.616   2.894
  362PF6      F 4148   3.374   2.562   2.697
  362PF6      F 4149   3.435   2.396   2.845
  363PF6      F 4150   2.347   0.498   2.432
  363PF6      P 4151   2.261   0.422   2.548
  363PF6      F 4152   2.265   0.285   2.460
  363PF6      F 4153   2.399   0.379   2.623
  363PF6      F 4154   2.175   0.346   2.663
  363PF6      F 4155   2.256   0.560   2.635
  363PF6      F 4156   2.123   0.465   2.473
  364PF6      F 4157   3.553   1.839   2.935
  364PF6      P 4158   3.451   1.758   3.032
  364PF6      F 4159   3.330   1.858   2.988
  364PF6      F 4160   3.413   1.658   2.909
  364PF6      F 4161   3.348   1.677   3.129
  364PF6      F 4162   3.571   1.658   3.076
  364PF6      F 4163   3.488   1.858   3.156
  365PF6      F 4164   1.737   0.236   1.103
  365PF6      P 4165   1.898   0.214   1.086
  365PF6      F 4166   1.895   0.100   1.203
  365PF6      F 4167   1.871   0.100   0.973
  365PF6      F 4168   2.059   0.193   1.070
  365PF6      F 4169   1.901   0.328   0.970
  365PF6      F 4170   1.925   0.328   1.200
  366PF6      F 4171   2.974   3.323   3.526
  366PF6      P 4172   2.953   3.305   3.365
  366PF6      F 4173   2.959   3.467   3.346
  366PF6      F 4174   3.115   3.297   3.345
  366PF6      F 4175   2.932   3.287   3.204
  366PF6      F 4176   2.947   3.143   3.384
  366PF6      F 4177   2.792   3.313   3.385
  367PF6      F 4178   2.619   2.669   1.948
  367PF6      P 4179   2.554   2.736   1.814
  367PF6      F 4180   2.425   2.784   1.901
  367PF6      F 4181   2.629   2.877   1.848
  367PF6      F 4182   2.490   2.802   1.680
  367PF6      F 4183   2.684   2.688   1.728
  367PF6      F 4184   2.480   2.595   1.780
  368PF6      F 4185   3.420   1.342   3.960
  368PF6      P 4186   3.293   1.349   3.859
  368PF6      F 4187   3.232   1.213   3.926
  368PF6      F 4188   3.211   1.439   3.967
  368PF6      F 4189   3.166   1.355   3.757
  368PF6      F 4190   3.354   1.484   3.791
  368PF6      F 4191   3.375   1.258   3.751
  369PF6      F 4192   0.811   1.955   1.375
  369PF6      P 4193   0.897   1.824   1.418
  369PF6      F 4194   0.793   1.795   1.540
  369PF6      F 4195   0.807   1.731   1.319
  369PF6      F 4196   0.984   1.693   1.462
  369PF6      F 4197   1.002   1.853   1.297
  369PF6      F 4198   0.987   1.916   1.518
  370PF6      F 4199   1.034   3.311   1.751
  370PF6      P 4200   1.034   3.311   1.588
  370PF6      F 4201   1.032   3.474   1.588
  370PF6      F 4202   1.197   3.314   1.589
  370PF6      F 4203   1.035   3.311   1.425
  370PF6      F 4204   1.037   3.148   1.589
  370PF6      F 4205   0.871   3.309   1.588
  371PF6      F 4206   2.416   2.542   2.492
  371PF6      P 4207   2.451   2.571   2.649
  371PF6      F 4208   2.340   2.461   2.694
  371PF6      F 4209   2.565   2.455   2.645
  371PF6      F 4210   2.486   2.600   2.805
  371PF6      F 4211   2.562   2.682   2.604
  371PF6      F 4212   2.337   2.687   2.653
  372PF6      F 4213   3.263   0.894   2.318
  372PF6      P 4214   3.239   0.868   2.477
  372PF6      F 4215   3.305   0.720   2.462
  372PF6      F 4216   3.386   0.931   2.509
  372PF6      F 4217   3.216   0.843   2.636
  372PF6      F 4218   3.173   1.017   2.491
  372PF6      F 4219   3.092   0.806   2.445
  373PF6      F 4220   0.306   0.343   3.531
  373PF6      P 4221   0.385   0.460   3.449
  373PF6      F 4222   0.305   0.574   3.534
  373PF6      F 4223   0.503   0.459   3.561
  373PF6      F 4224   0.464   0.577   3.367
  373PF6      F 4225   0.464   0.346   3.363
  373PF6      F 4226   0.266   0.462   3.337
  374PF6      F 4227   0.603   3.542   3.907
  374PF6      P 4228   0.605   3.548   3.744
  374PF6      F 4229   0.757   3.488   3.744
  374PF6      F 4230   0.545   3.397   3.737
  374PF6      F 4231   0.608   3.554   3.581
  374PF6      F 4232   0.454   3.608   3.744
  374PF6      F 4233   0.666   3.700   3.751
  375LI      Li 4234   3.397   1.032   1.986
  376LI      Li 4235   2.124   2.955   2.943
  377LI      Li 4236   3.328   2.519   1.047
  378LI      Li 4237   1.215   1.881   3.842
  379LI      Li 4238   0.338   1.104   0.618
  380LI      Li 4239   2.792   2.405   2.634
  381LI      Li 4240   1.273   0.831   2.350
  382LI      Li 4241   3.696   1.327   1.404
  383LI      Li 4242   1.773   2.941   2.643
  384LI      Li 4243   0.986   2.658   2.694
  385LI      Li 4244   0.552   0.319   0.422
  386LI      Li 4245   3.215   1.341   2.875
  387LI      Li 4246   0.627   1.069   0.927
  388LI      Li 4247   2.999   1.058   3.158
  389LI      Li 4248   3.627   2.466   1.333
  390LI      Li 4249   1.260   0.559   0.738
  391LI      Li 4250   0.272   3.476   3.549
  392LI      Li 4251   0.827   3.300   2.583
  393LI      Li 4252   0.178   3.312   2.259
  394LI      Li 4253   3.622   0.784   1.308
  395LI      Li 4254   1.485   0.391   1.227
  396LI      Li 4255   0.963   2.172   0.936
  397LI      Li 4256   1.171   2.117   3.770
  398LI      Li 4257   3.608   3.027   0.968
  399LI      Li 4258   2.953   3.388   0.602
  400LI      Li 4259   2.396   3.328   0.512
  401LI      Li 4260   3.045   1.725   0.433
  402LI      Li 4261   0.937   1.033   2.240
  403LI      Li 4262   2.092   2.766   2.418
  404LI      Li 4263   1.916   0.970   2.243
  405LI      Li 4264   2.894   2.566   1.182
  406LI      Li 4265   3.396   0.538   0.369
  407LI      Li 4266   1.256   2.541   0.565
  408LI      Li 4267   1.963   2.137   1.184
   4.07000   4.07000   4.07000
