; ITP file created by ByteFF-ML, 2026-09-15 19:47:54.618160

[ moleculetype ]
;name             nrexcl
 FTA                   3

[ atoms ]
;       nr            type      resi   res      atom      cgnr      charge          mass ; qtot
         1            o0bf         1   UNL        o0         1    -0.49498       15.9990 ; qtot   -0.495
         2            s1bf         1   UNL        s1         2     1.10764       32.0670 ; qtot    0.613
         3            o2bf         1   UNL        o2         3    -0.49498       15.9990 ; qtot    0.118
         4            f3bf         1   UNL        f3         4    -0.29164       18.9980 ; qtot   -0.174
         5            n4bf         1   UNL        n4         5    -0.62101       14.0070 ; qtot   -0.795
         6            s5bf         1   UNL        s5         6     0.81521       32.0670 ; qtot    0.020
         7            o6bf         1   UNL        o6         7    -0.47452       15.9990 ; qtot   -0.454
         8            o7bf         1   UNL        o7         8    -0.47452       15.9990 ; qtot   -0.929
         9            c8bf         1   UNL        c8         9     0.23566       12.0110 ; qtot   -0.693
        10            f9bf         1   UNL        f9        10    -0.10228       18.9980 ; qtot   -0.795
        11           f10bf         1   UNL       f10        11    -0.10228       18.9980 ; qtot   -0.898
        12           f11bf         1   UNL       f11        12    -0.10230       18.9980 ; qtot   -1.000

[ bonds ]
;       ai        aj funct               r               k
         1         2     1        0.144485   492938.532031
         2         3     1        0.144485   492938.532031
         2         4     1        0.178693   115896.289258
         2         5     1        0.159950   201879.430078
         5         6     1        0.158004   201261.266040
         6         7     1        0.147100   469012.354590
         6         8     1        0.147100   469012.354590
         6         9     1        0.191322   114886.871167
         9        10     1        0.139907   246309.991064
         9        11     1        0.139907   246309.991064
         9        12     1        0.139907   246309.991064

[ angles ]
;       ai        aj        ak funct           theta             cth
         1         2         3     1      120.660843      700.256013
         1         2         4     1      104.011162      545.053848
         1         2         5     1      112.553352      538.567167
         2         5         6     1      122.662468      616.751198
         3         2         4     1      104.011162      545.053848
         3         2         5     1      112.553352      538.567167
         4         2         5     1       99.522125      462.797350
         5         6         7     1      113.409843      555.931507
         5         6         8     1      113.409843      555.931507
         5         6         9     1      103.011391      308.055683
         6         9        10     1      111.531631      419.367441
         6         9        11     1      111.531631      419.367441
         6         9        12     1      111.531631      419.367441
         7         6         8     1      120.383659      724.398541
         7         6         9     1      103.679596      330.369115
         8         6         9     1      103.679596      330.369115
        10         9        11     1      108.875610      720.671272
        10         9        12     1      108.875610      720.671272
        11         9        12     1      108.875618      720.670634

[ dihedrals ] ; propers for gromacs 4.5 or higher, use funct 9
;       ai        aj        ak        al funct           phase               k        pn
         1         2         5         6     9        0.000000       10.563130         1
         1         2         5         6     9      180.000000        2.094873         2
         1         2         5         6     9        0.000000        0.791916         3
         1         2         5         6     9      180.000000       -0.077367         4
         2         5         6         7     9        0.000000        8.267865         1
         2         5         6         7     9      180.000000        1.654186         2
         2         5         6         7     9        0.000000        0.767781         3
         2         5         6         7     9      180.000000        0.034217         4
         2         5         6         8     9        0.000000        8.267865         1
         2         5         6         8     9      180.000000        1.654186         2
         2         5         6         8     9        0.000000        0.767781         3
         2         5         6         8     9      180.000000        0.034217         4
         2         5         6         9     9        0.000000       18.819527         1
         2         5         6         9     9      180.000000       -1.625223         2
         2         5         6         9     9        0.000000       -0.978045         3
         2         5         6         9     9      180.000000        0.015912         4
         3         2         5         6     9        0.000000       10.563130         1
         3         2         5         6     9      180.000000        2.094873         2
         3         2         5         6     9        0.000000        0.791916         3
         3         2         5         6     9      180.000000       -0.077367         4
         4         2         5         6     9        0.000000        3.421495         1
         4         2         5         6     9      180.000000       -1.269223         2
         4         2         5         6     9        0.000000        0.250855         3
         4         2         5         6     9      180.000000        0.003102         4
         5         6         9        10     9        0.000000        3.973164         1
         5         6         9        10     9      180.000000        4.355621         2
         5         6         9        10     9        0.000000        0.228473         3
         5         6         9        10     9      180.000000        0.038717         4
         5         6         9        11     9        0.000000        3.973164         1
         5         6         9        11     9      180.000000        4.355621         2
         5         6         9        11     9        0.000000        0.228473         3
         5         6         9        11     9      180.000000        0.038717         4
         5         6         9        12     9        0.000000        3.973164         1
         5         6         9        12     9      180.000000        4.355621         2
         5         6         9        12     9        0.000000        0.228473         3
         5         6         9        12     9      180.000000        0.038717         4
         7         6         9        10     9        0.000000        3.871548         1
         7         6         9        10     9      180.000000        2.475786         2
         7         6         9        10     9        0.000000        0.644096         3
         7         6         9        10     9      180.000000        0.175789         4
         7         6         9        11     9        0.000000        3.871548         1
         7         6         9        11     9      180.000000        2.475786         2
         7         6         9        11     9        0.000000        0.644096         3
         7         6         9        11     9      180.000000        0.175789         4
         7         6         9        12     9        0.000000        3.871548         1
         7         6         9        12     9      180.000000        2.475786         2
         7         6         9        12     9        0.000000        0.644096         3
         7         6         9        12     9      180.000000        0.175789         4
         8         6         9        10     9        0.000000        3.871556         1
         8         6         9        10     9      180.000000        2.475785         2
         8         6         9        10     9        0.000000        0.644095         3
         8         6         9        10     9      180.000000        0.175790         4
         8         6         9        11     9        0.000000        3.871556         1
         8         6         9        11     9      180.000000        2.475785         2
         8         6         9        11     9        0.000000        0.644095         3
         8         6         9        11     9      180.000000        0.175790         4
         8         6         9        12     9        0.000000        3.871556         1
         8         6         9        12     9      180.000000        2.475785         2
         8         6         9        12     9        0.000000        0.644095         3
         8         6         9        12     9      180.000000        0.175790         4

[ pairs ]
;       ai        aj funct
         1         6     1
         2         7     1
         2         8     1
         2         9     1
         3         6     1
         4         6     1
         5        10     1
         5        11     1
         5        12     1
         7        10     1
         7        11     1
         7        12     1
         8        10     1
         8        11     1
         8        12     1
