A Gromacs structure file written by ASE 
   12
    1FTA      O    1  -0.268   0.016   0.161  0.0000  0.0000  0.0000
    1FTA      S    2  -0.167  -0.000   0.058  0.0000  0.0000  0.0000
    1FTA      O    3  -0.159   0.110  -0.037  0.0000  0.0000  0.0000
    1FTA      F    4  -0.230  -0.118  -0.030  0.0000  0.0000  0.0000
    1FTA      N    5  -0.031  -0.061   0.110  0.0000  0.0000  0.0000
    1FTA      S    6   0.074  -0.092  -0.005  0.0000  0.0000  0.0000
    1FTA      O    7   0.023  -0.157  -0.126  0.0000  0.0000  0.0000
    1FTA      O    8   0.195  -0.156   0.047  0.0000  0.0000  0.0000
    1FTA      C    9   0.127   0.079  -0.053  0.0000  0.0000  0.0000
    1FTA      F   10   0.070   0.124  -0.168  0.0000  0.0000  0.0000
    1FTA      F   11   0.262   0.084  -0.075  0.0000  0.0000  0.0000
    1FTA      F   12   0.104   0.171   0.045  0.0000  0.0000  0.0000

