A Gromacs structure file written by ASE
 4556
    1EC       O    1   1.210   0.927   0.499
    1EC       C    2   1.126   0.914   0.588
    1EC       O    3   1.075   1.016   0.661
    1EC       C    4   1.002   0.958   0.767
    1EC       C    5   0.965   0.824   0.711
    1EC       O    6   1.074   0.793   0.626
    1EC       H    7   1.068   0.949   0.854
    1EC       H    8   0.915   1.017   0.794
    1EC       H    9   0.873   0.828   0.652
    1EC       H   10   0.954   0.747   0.789
    2EC       O   11   1.630   0.333   1.323
    2EC       C   12   1.560   0.406   1.391
    2EC       O   13   1.433   0.443   1.360
    2EC       C   14   1.397   0.545   1.450
    2EC       C   15   1.485   0.518   1.568
    2EC       O   16   1.601   0.463   1.509
    2EC       H   17   1.419   0.642   1.403
    2EC       H   18   1.291   0.541   1.475
    2EC       H   19   1.441   0.445   1.636
    2EC       H   20   1.510   0.609   1.624
    3EC       O   21   2.830   1.687   2.442
    3EC       C   22   2.831   1.580   2.501
    3EC       O   23   2.932   1.489   2.496
    3EC       C   24   2.885   1.372   2.557
    3EC       C   25   2.780   1.423   2.650
    3EC       O   26   2.729   1.537   2.581
    3EC       H   27   2.843   1.306   2.479
    3EC       H   28   2.964   1.319   2.609
    3EC       H   29   2.821   1.454   2.746
    3EC       H   30   2.699   1.350   2.668
    4EC       O   31   3.341   1.305   1.605
    4EC       C   32   3.446   1.362   1.580
    4EC       O   33   3.480   1.486   1.625
    4EC       C   34   3.596   1.524   1.555
    4EC       C   35   3.658   1.392   1.520
    4EC       O   36   3.545   1.308   1.503
    4EC       H   37   3.567   1.581   1.467
    4EC       H   38   3.662   1.585   1.617
    4EC       H   39   3.720   1.353   1.600
    4EC       H   40   3.717   1.396   1.427
    5EC       O   41   2.191   1.376   0.995
    5EC       C   42   2.175   1.256   0.981
    5EC       O   43   2.061   1.189   1.014
    5EC       C   44   2.092   1.052   1.007
    5EC       C   45   2.205   1.048   0.910
    5EC       O   46   2.271   1.172   0.932
    5EC       H   47   2.121   1.018   1.107
    5EC       H   48   2.006   0.993   0.973
    5EC       H   49   2.171   1.044   0.806
    5EC       H   50   2.274   0.964   0.927
    6EC       O   51   2.851   3.015   1.513
    6EC       C   52   2.900   3.105   1.580
    6EC       O   53   3.030   3.111   1.620
    6EC       C   54   3.038   3.214   1.715
    6EC       C   55   2.924   3.303   1.678
    6EC       O   56   2.828   3.212   1.626
    6EC       H   57   3.026   3.171   1.815
    6EC       H   58   3.134   3.266   1.710
    6EC       H   59   2.951   3.374   1.599
    6EC       H   60   2.883   3.358   1.763
    7EC       O   61   3.335   1.252   2.337
    7EC       C   62   3.335   1.331   2.430
    7EC       O   63   3.230   1.350   2.515
    7EC       C   64   3.259   1.466   2.590
    7EC       C   65   3.409   1.472   2.586
    7EC       O   66   3.439   1.415   2.459
    7EC       H   67   3.213   1.552   2.540
    7EC       H   68   3.221   1.459   2.692
    7EC       H   69   3.454   1.411   2.664
    7EC       H   70   3.448   1.574   2.592
    8EC       O   71   1.875   0.578   0.536
    8EC       C   72   1.766   0.633   0.547
    8EC       O   73   1.742   0.743   0.623
    8EC       C   74   1.602   0.758   0.628
    8EC       C   75   1.556   0.691   0.503
    8EC       O   76   1.653   0.588   0.485
    8EC       H   77   1.565   0.708   0.718
    8EC       H   78   1.573   0.863   0.632
    8EC       H   79   1.559   0.758   0.417
    8EC       H   80   1.456   0.648   0.512
    9EC       O   81   0.457   3.941   1.940
    9EC       C   82   0.388   3.841   1.931
    9EC       O   83   0.435   3.713   1.934
    9EC       C   84   0.329   3.630   1.896
    9EC       C   85   0.208   3.710   1.934
    9EC       O   86   0.252   3.844   1.915
    9EC       H   87   0.335   3.613   1.788
    9EC       H   88   0.332   3.534   1.948
    9EC       H   89   0.180   3.696   2.038
    9EC       H   90   0.121   3.689   1.870
   10EC       O   91   3.436   3.472   1.290
   10EC       C   92   3.520   3.453   1.376
   10EC       O   93   3.601   3.344   1.384
   10EC       C   94   3.665   3.349   1.509
   10EC       C   95   3.664   3.495   1.542
   10EC       O   96   3.544   3.540   1.480
   10EC       H   97   3.606   3.290   1.580
   10EC       H   98   3.766   3.308   1.504
   10EC       H   99   3.749   3.547   1.498
   10EC       H  100   3.661   3.515   1.649
   11EC       O  101   1.564   3.541   1.385
   11EC       C  102   1.671   3.501   1.427
   11EC       O  103   1.715   3.373   1.419
   11EC       C  104   1.830   3.364   1.500
   11EC       C  105   1.881   3.504   1.501
   11EC       O  106   1.762   3.581   1.491
   11EC       H  107   1.799   3.330   1.599
   11EC       H  108   1.902   3.294   1.459
   11EC       H  109   1.945   3.526   1.415
   11EC       H  110   1.935   3.529   1.593
   12EC       O  111   3.227   0.897   2.420
   12EC       C  112   3.288   0.962   2.502
   12EC       O  113   3.414   1.012   2.484
   12EC       C  114   3.458   1.059   2.609
   12EC       C  115   3.330   1.090   2.680
   12EC       O  116   3.240   0.994   2.626
   12EC       H  117   3.514   0.978   2.658
   12EC       H  118   3.522   1.146   2.599
   12EC       H  119   3.293   1.190   2.656
   12EC       H  120   3.338   1.079   2.788
   13EC       O  121   0.903   1.872   0.872
   13EC       C  122   0.852   1.983   0.871
   13EC       O  123   0.721   2.009   0.898
   13EC       C  124   0.698   2.143   0.862
   13EC       C  125   0.834   2.205   0.875
   13EC       O  126   0.921   2.098   0.841
   13EC       H  127   0.661   2.146   0.759
   13EC       H  128   0.625   2.190   0.928
   13EC       H  129   0.855   2.237   0.977
   13EC       H  130   0.849   2.290   0.807
   14EC       O  131   2.680   1.456   1.173
   14EC       C  132   2.583   1.407   1.229
   14EC       O  133   2.518   1.463   1.335
   14EC       C  134   2.429   1.365   1.384
   14EC       C  135   2.404   1.279   1.264
   14EC       O  136   2.527   1.288   1.193
   14EC       H  137   2.480   1.310   1.464
   14EC       H  138   2.338   1.409   1.423
   14EC       H  139   2.324   1.319   1.201
   14EC       H  140   2.382   1.175   1.290
   15EC       O  141   4.030   3.261   0.543
   15EC       C  142   3.909   3.245   0.538
   15EC       O  143   3.842   3.144   0.600
   15EC       C  144   3.710   3.146   0.550
   15EC       C  145   3.693   3.289   0.508
   15EC       O  146   3.824   3.327   0.468
   15EC       H  147   3.704   3.077   0.465
   15EC       H  148   3.638   3.116   0.626
   15EC       H  149   3.661   3.353   0.591
   15EC       H  150   3.623   3.301   0.425
   16EC       O  151   0.897   0.110   2.589
   16EC       C  152   0.980   0.197   2.608
   16EC       O  153   0.957   0.314   2.674
   16EC       C  154   1.069   0.396   2.654
   16EC       C  155   1.178   0.297   2.628
   16EC       O  156   1.110   0.190   2.565
   16EC       H  157   1.050   0.460   2.567
   16EC       H  158   1.089   0.458   2.741
   16EC       H  159   1.223   0.260   2.721
   16EC       H  160   1.257   0.336   2.563
   17EC       O  161   2.077   1.901   2.120
   17EC       C  162   2.095   1.781   2.135
   17EC       O  163   2.184   1.726   2.222
   17EC       C  164   2.193   1.589   2.191
   17EC       C  165   2.060   1.561   2.127
   17EC       O  166   2.029   1.684   2.064
   17EC       H  167   2.276   1.574   2.121
   17EC       H  168   2.209   1.529   2.280
   17EC       H  169   1.983   1.539   2.202
   17EC       H  170   2.064   1.480   2.054
   18EC       O  171   2.901   0.666   1.115
   18EC       C  172   2.919   0.723   1.221
   18EC       O  173   2.821   0.761   1.307
   18EC       C  174   2.880   0.845   1.403
   18EC       C  175   3.023   0.801   1.402
   18EC       O  176   3.043   0.760   1.267
   18EC       H  177   2.868   0.948   1.370
   18EC       H  178   2.834   0.833   1.501
   18EC       H  179   3.040   0.715   1.468
   18EC       H  180   3.093   0.881   1.428
   19EC       O  181   3.323   1.910   2.016
   19EC       C  182   3.244   1.996   2.051
   19EC       O  183   3.263   2.130   2.037
   19EC       C  184   3.162   2.194   2.110
   19EC       C  185   3.053   2.093   2.112
   19EC       O  186   3.123   1.970   2.111
   19EC       H  187   3.201   2.216   2.211
   19EC       H  188   3.132   2.288   2.063
   19EC       H  189   2.990   2.099   2.023
   19EC       H  190   2.989   2.100   2.201
   20EC       O  191   3.843   1.686   1.204
   20EC       C  192   3.812   1.800   1.236
   20EC       O  193   3.782   1.900   1.148
   20EC       C  194   3.777   2.019   1.222
   20EC       C  195   3.742   1.971   1.360
   20EC       O  196   3.804   1.843   1.365
   20EC       H  197   3.875   2.067   1.218
   20EC       H  198   3.702   2.088   1.182
   20EC       H  199   3.634   1.959   1.373
   20EC       H  200   3.781   2.036   1.439
   21EC       O  201   0.619   1.512   1.349
   21EC       C  202   0.572   1.624   1.340
   21EC       O  203   0.440   1.655   1.352
   21EC       C  204   0.425   1.789   1.310
   21EC       C  205   0.561   1.846   1.335
   21EC       O  206   0.647   1.736   1.313
   21EC       H  207   0.399   1.789   1.204
   21EC       H  208   0.348   1.840   1.367
   21EC       H  209   0.573   1.881   1.438
   21EC       H  210   0.586   1.928   1.266
   22EC       O  211   3.744   2.769   2.200
   22EC       C  212   3.679   2.720   2.291
   22EC       O  213   3.560   2.768   2.337
   22EC       C  214   3.531   2.700   2.456
   22EC       C  215   3.605   2.570   2.438
   22EC       O  216   3.717   2.608   2.360
   22EC       H  217   3.569   2.758   2.540
   22EC       H  218   3.424   2.685   2.468
   22EC       H  219   3.546   2.497   2.382
   22EC       H  220   3.636   2.526   2.533
   23EC       O  221   3.521   1.345   0.892
   23EC       C  222   3.629   1.325   0.945
   23EC       O  223   3.697   1.417   1.019
   23EC       C  224   3.826   1.365   1.041
   23EC       C  225   3.804   1.217   1.031
   23EC       O  226   3.698   1.207   0.936
   23EC       H  227   3.892   1.403   0.962
   23EC       H  228   3.865   1.394   1.138
   23EC       H  229   3.771   1.174   1.126
   23EC       H  230   3.893   1.163   0.995
   24EC       O  231   3.719   0.998   1.520
   24EC       C  232   3.599   0.987   1.539
   24EC       O  233   3.537   0.873   1.580
   24EC       C  234   3.399   0.895   1.566
   24EC       C  235   3.387   1.044   1.576
   24EC       O  236   3.510   1.089   1.520
   24EC       H  237   3.367   0.858   1.467
   24EC       H  238   3.342   0.844   1.643
   24EC       H  239   3.381   1.078   1.680
   24EC       H  240   3.302   1.085   1.520
   25EC       O  241   3.225   3.629   3.639
   25EC       C  242   3.275   3.548   3.562
   25EC       O  243   3.394   3.564   3.499
   25EC       C  244   3.404   3.462   3.403
   25EC       C  245   3.316   3.355   3.459
   25EC       O  246   3.217   3.429   3.528
   25EC       H  247   3.366   3.501   3.307
   25EC       H  248   3.507   3.429   3.390
   25EC       H  249   3.370   3.292   3.530
   25EC       H  250   3.271   3.292   3.382
   26EC       O  251   2.818   2.460   3.595
   26EC       C  252   2.790   2.474   3.477
   26EC       O  253   2.809   2.379   3.381
   26EC       C  254   2.789   2.442   3.257
   26EC       C  255   2.698   2.556   3.291
   26EC       O  256   2.738   2.589   3.424
   26EC       H  257   2.886   2.477   3.219
   26EC       H  258   2.745   2.374   3.184
   26EC       H  259   2.593   2.526   3.292
   26EC       H  260   2.710   2.642   3.225
   27EC       O  261   0.928   2.336   3.093
   27EC       C  262   1.032   2.306   3.149
   27EC       O  263   1.059   2.185   3.205
   27EC       C  264   1.177   2.199   3.280
   27EC       C  265   1.246   2.313   3.212
   27EC       O  266   1.138   2.392   3.165
   27EC       H  267   1.149   2.224   3.384
   27EC       H  268   1.236   2.108   3.279
   27EC       H  269   1.305   2.280   3.127
   27EC       H  270   1.310   2.371   3.280
   28EC       O  271   2.059   1.325   2.339
   28EC       C  272   1.969   1.243   2.350
   28EC       O  273   1.987   1.108   2.353
   28EC       C  274   1.860   1.049   2.341
   28EC       C  275   1.769   1.155   2.396
   28EC       O  276   1.836   1.275   2.361
   28EC       H  277   1.840   1.029   2.235
   28EC       H  278   1.853   0.956   2.398
   28EC       H  279   1.761   1.150   2.505
   28EC       H  280   1.669   1.153   2.352
   29EC       O  281   1.266   0.722   2.985
   29EC       C  282   1.227   0.838   2.981
   29EC       O  283   1.096   0.876   2.979
   29EC       C  284   1.093   1.013   2.949
   29EC       C  285   1.227   1.060   2.997
   29EC       O  286   1.310   0.947   2.976
   29EC       H  287   1.081   1.025   2.841
   29EC       H  288   1.011   1.064   3.000
   29EC       H  289   1.227   1.084   3.103
   29EC       H  290   1.265   1.146   2.941
   30EC       O  291   0.268   2.833   1.586
   30EC       C  292   0.258   2.715   1.555
   30EC       O  293   0.142   2.654   1.517
   30EC       C  294   0.168   2.516   1.514
   30EC       C  295   0.316   2.510   1.490
   30EC       O  296   0.363   2.627   1.555
   30EC       H  297   0.140   2.473   1.611
   30EC       H  298   0.112   2.466   1.435
   30EC       H  299   0.341   2.516   1.384
   30EC       H  300   0.362   2.421   1.533
   31EC       O  301   2.896   0.330   1.890
   31EC       C  302   2.992   0.386   1.840
   31EC       O  303   2.994   0.441   1.715
   31EC       C  304   3.128   0.473   1.687
   31EC       C  305   3.187   0.492   1.823
   31EC       O  306   3.113   0.401   1.903
   31EC       H  307   3.173   0.389   1.633
   31EC       H  308   3.136   0.563   1.626
   31EC       H  309   3.172   0.593   1.861
   31EC       H  310   3.294   0.468   1.827
   32EC       O  311   1.975   3.221   3.596
   32EC       C  312   1.907   3.130   3.641
   32EC       O  313   1.772   3.119   3.627
   32EC       C  314   1.730   3.016   3.713
   32EC       C  315   1.852   2.931   3.725
   32EC       O  316   1.958   3.025   3.714
   32EC       H  317   1.700   3.061   3.808
   32EC       H  318   1.645   2.961   3.671
   32EC       H  319   1.860   2.859   3.644
   32EC       H  320   1.858   2.878   3.821
   33EC       O  321   1.419   0.625   1.167
   33EC       C  322   1.338   0.712   1.196
   33EC       O  323   1.371   0.839   1.232
   33EC       C  324   1.253   0.899   1.281
   33EC       C  325   1.145   0.822   1.212
   33EC       O  326   1.203   0.692   1.198
   33EC       H  327   1.251   0.886   1.390
   33EC       H  328   1.249   1.005   1.258
   33EC       H  329   1.123   0.862   1.113
   33EC       H  330   1.052   0.816   1.270
   34EC       O  331   2.111   3.293   2.471
   34EC       C  332   2.033   3.379   2.431
   34EC       O  333   2.061   3.512   2.423
   34EC       C  334   1.940   3.578   2.396
   34EC       C  335   1.860   3.472   2.327
   34EC       O  336   1.906   3.352   2.387
   34EC       H  337   1.895   3.609   2.491
   34EC       H  338   1.955   3.666   2.333
   34EC       H  339   1.881   3.468   2.219
   34EC       H  340   1.752   3.484   2.342
   35EC       O  341   0.965   0.122   0.603
   35EC       C  342   0.937   0.240   0.593
   35EC       O  343   1.007   0.331   0.519
   35EC       C  344   0.958   0.458   0.554
   35EC       C  345   0.818   0.428   0.600
   35EC       O  346   0.830   0.299   0.657
   35EC       H  347   1.020   0.499   0.634
   35EC       H  348   0.959   0.526   0.468
   35EC       H  349   0.747   0.424   0.517
   35EC       H  350   0.782   0.500   0.675
   36EC       O  351   2.747   3.810   1.880
   36EC       C  352   2.670   3.791   1.787
   36EC       O  353   2.535   3.811   1.793
   36EC       C  354   2.480   3.756   1.676
   36EC       C  355   2.595   3.763   1.580
   36EC       O  356   2.708   3.747   1.663
   36EC       H  357   2.450   3.653   1.697
   36EC       H  358   2.394   3.812   1.642
   36EC       H  359   2.600   3.860   1.530
   36EC       H  360   2.591   3.684   1.504
   37EC       O  361   2.731   1.784   3.483
   37EC       C  362   2.709   1.883   3.416
   37EC       O  363   2.619   1.889   3.313
   37EC       C  364   2.641   2.011   3.247
   37EC       C  365   2.701   2.097   3.354
   37EC       O  366   2.772   2.003   3.433
   37EC       H  367   2.710   1.994   3.164
   37EC       H  368   2.548   2.053   3.208
   37EC       H  369   2.625   2.145   3.416
   37EC       H  370   2.769   2.173   3.314
   38EC       O  371   1.126   0.100   1.341
   38EC       C  372   1.162   0.180   1.256
   38EC       O  373   1.117   0.181   1.127
   38EC       C  374   1.199   0.270   1.057
   38EC       C  375   1.247   0.363   1.164
   38EC       O  376   1.253   0.280   1.278
   38EC       H  377   1.281   0.214   1.011
   38EC       H  378   1.144   0.323   0.978
   38EC       H  379   1.176   0.445   1.182
   38EC       H  380   1.346   0.406   1.142
   39EC       O  381   0.575   1.369   2.558
   39EC       C  382   0.495   1.284   2.594
   39EC       O  383   0.359   1.296   2.583
   39EC       C  384   0.303   1.191   2.657
   39EC       C  385   0.411   1.087   2.655
   39EC       O  386   0.530   1.165   2.651
   39EC       H  387   0.282   1.227   2.758
   39EC       H  388   0.211   1.155   2.612
   39EC       H  389   0.407   1.025   2.565
   39EC       H  390   0.410   1.022   2.743
   40EC       O  391   2.444   1.278   2.063
   40EC       C  392   2.550   1.221   2.078
   40EC       O  393   2.645   1.206   1.981
   40EC       C  394   2.740   1.114   2.031
   40EC       C  395   2.727   1.129   2.179
   40EC       O  396   2.589   1.162   2.195
   40EC       H  397   2.712   1.014   1.996
   40EC       H  398   2.840   1.138   1.995
   40EC       H  399   2.788   1.211   2.217
   40EC       H  400   2.752   1.038   2.233
   41EC       O  401   1.677   3.795   2.074
   41EC       C  402   1.594   3.720   2.122
   41EC       O  403   1.498   3.755   2.212
   41EC       C  404   1.440   3.636   2.259
   41EC       C  405   1.463   3.541   2.146
   41EC       O  406   1.586   3.586   2.090
   41EC       H  407   1.493   3.606   2.350
   41EC       H  408   1.334   3.649   2.281
   41EC       H  409   1.385   3.548   2.070
   41EC       H  410   1.472   3.437   2.179
   42EC       O  411   1.345   3.377   2.359
   42EC       C  412   1.443   3.305   2.352
   42EC       O  413   1.448   3.184   2.291
   42EC       C  414   1.570   3.124   2.327
   42EC       C  415   1.657   3.243   2.356
   42EC       O  416   1.565   3.338   2.407
   42EC       H  417   1.554   3.062   2.415
   42EC       H  418   1.610   3.063   2.246
   42EC       H  419   1.704   3.283   2.266
   42EC       H  420   1.735   3.221   2.430
   43EC       O  421   2.470   3.134   2.762
   43EC       C  422   2.357   3.181   2.762
   43EC       O  423   2.244   3.109   2.788
   43EC       C  424   2.135   3.192   2.754
   43EC       C  425   2.192   3.330   2.770
   43EC       O  426   2.329   3.312   2.735
   43EC       H  427   2.106   3.171   2.651
   43EC       H  428   2.050   3.175   2.820
   43EC       H  429   2.186   3.365   2.873
   43EC       H  430   2.145   3.403   2.704
   44EC       O  431   3.165   1.677   2.808
   44EC       C  432   3.241   1.749   2.871
   44EC       O  433   3.346   1.817   2.818
   44EC       C  434   3.422   1.866   2.925
   44EC       C  435   3.321   1.876   3.035
   44EC       O  436   3.231   1.770   3.006
   44EC       H  437   3.501   1.793   2.948
   44EC       H  438   3.467   1.962   2.902
   44EC       H  439   3.266   1.971   3.032
   44EC       H  440   3.364   1.864   3.135
   45EC       O  441   1.769   3.873   1.567
   45EC       C  442   1.821   3.845   1.460
   45EC       O  443   1.779   3.890   1.338
   45EC       C  444   1.849   3.816   1.241
   45EC       C  445   1.974   3.776   1.313
   45EC       O  446   1.930   3.762   1.447
   45EC       H  447   1.787   3.730   1.213
   45EC       H  448   1.870   3.876   1.152
   45EC       H  449   2.051   3.853   1.308
   45EC       H  450   2.015   3.681   1.276
   46EC       O  451   1.070   1.380   2.069
   46EC       C  452   1.116   1.363   2.181
   46EC       O  453   1.177   1.459   2.256
   46EC       C  454   1.237   1.394   2.365
   46EC       C  455   1.152   1.271   2.381
   46EC       O  456   1.112   1.243   2.248
   46EC       H  457   1.341   1.370   2.339
   46EC       H  458   1.236   1.457   2.454
   46EC       H  459   1.063   1.290   2.441
   46EC       H  460   1.208   1.187   2.423
   47EC       O  461   2.779   2.158   1.001
   47EC       C  462   2.760   2.048   0.952
   47EC       O  463   2.710   1.941   1.020
   47EC       C  464   2.726   1.829   0.937
   47EC       C  465   2.728   1.889   0.800
   47EC       O  466   2.787   2.016   0.822
   47EC       H  467   2.821   1.780   0.962
   47EC       H  468   2.644   1.757   0.949
   47EC       H  469   2.627   1.903   0.759
   47EC       H  470   2.787   1.831   0.728
   48EC       O  471   0.098   2.532   1.818
   48EC       C  472   0.145   2.478   1.917
   48EC       O  473   0.223   2.540   2.010
   48EC       C  474   0.276   2.439   2.092
   48EC       C  475   0.175   2.330   2.080
   48EC       O  476   0.126   2.346   1.948
   48EC       H  477   0.374   2.410   2.053
   48EC       H  478   0.288   2.474   2.195
   48EC       H  479   0.092   2.343   2.151
   48EC       H  480   0.218   2.230   2.094
   49EC       O  481   1.025   2.424   1.057
   49EC       C  482   1.126   2.444   1.122
   49EC       O  483   1.250   2.464   1.068
   49EC       C  484   1.342   2.459   1.174
   49EC       C  485   1.258   2.497   1.293
   49EC       O  486   1.130   2.448   1.259
   49EC       H  487   1.380   2.356   1.182
   49EC       H  488   1.425   2.527   1.159
   49EC       H  489   1.252   2.606   1.305
   49EC       H  490   1.294   2.453   1.386
   50EC       O  491   2.657   3.313   2.886
   50EC       C  492   2.564   3.254   2.939
   50EC       O  493   2.434   3.295   2.935
   50EC       C  494   2.363   3.216   3.027
   50EC       C  495   2.445   3.091   3.034
   50EC       O  496   2.577   3.139   3.011
   50EC       H  497   2.360   3.269   3.123
   50EC       H  498   2.261   3.197   2.994
   50EC       H  499   2.419   3.020   2.955
   50EC       H  500   2.439   3.041   3.131
   51EC       O  501   3.546   0.211   0.460
   51EC       C  502   3.632   0.225   0.546
   51EC       O  503   3.766   0.211   0.525
   51EC       C  504   3.827   0.211   0.651
   51EC       C  505   3.730   0.287   0.736
   51EC       O  506   3.605   0.256   0.676
   51EC       H  507   3.838   0.107   0.684
   51EC       H  508   3.925   0.258   0.648
   51EC       H  509   3.746   0.395   0.729
   51EC       H  510   3.732   0.257   0.841
   52EC       O  511   3.525   1.909   2.130
   52EC       C  512   3.643   1.909   2.099
   52EC       O  513   3.721   2.020   2.089
   52EC       C  514   3.842   1.980   2.028
   52EC       C  515   3.850   1.835   2.065
   52EC       O  516   3.714   1.795   2.070
   52EC       H  517   3.833   1.995   1.920
   52EC       H  518   3.927   2.037   2.066
   52EC       H  519   3.896   1.820   2.163
   52EC       H  520   3.905   1.775   1.991
   53EC       O  521   3.005   3.254   2.422
   53EC       C  522   2.883   3.245   2.424
   53EC       O  523   2.813   3.128   2.412
   53EC       C  524   2.678   3.163   2.395
   53EC       C  525   2.669   3.297   2.460
   53EC       O  526   2.799   3.352   2.438
   53EC       H  527   2.658   3.168   2.287
   53EC       H  528   2.612   3.090   2.441
   53EC       H  529   2.652   3.289   2.568
   53EC       H  530   2.592   3.361   2.416
   54EC       O  531   1.564   0.350   3.285
   54EC       C  532   1.671   0.409   3.285
   54EC       O  533   1.793   0.349   3.272
   54EC       C  534   1.890   0.447   3.301
   54EC       C  535   1.819   0.575   3.269
   54EC       O  536   1.683   0.545   3.299
   54EC       H  537   1.915   0.439   3.408
   54EC       H  538   1.980   0.433   3.242
   54EC       H  539   1.827   0.601   3.163
   54EC       H  540   1.854   0.659   3.330
   55EC       O  541   2.433   3.734   2.213
   55EC       C  542   2.522   3.671   2.157
   55EC       O  543   2.626   3.727   2.089
   55EC       C  544   2.691   3.623   2.021
   55EC       C  545   2.658   3.503   2.104
   55EC       O  546   2.530   3.534   2.155
   55EC       H  547   2.649   3.616   1.920
   55EC       H  548   2.798   3.640   2.014
   55EC       H  549   2.728   3.490   2.187
   55EC       H  550   2.655   3.410   2.046
   56EC       O  551   3.544   1.690   0.417
   56EC       C  552   3.480   1.784   0.373
   56EC       O  553   3.481   1.910   0.426
   56EC       C  554   3.376   1.981   0.364
   56EC       C  555   3.360   1.910   0.234
   56EC       O  556   3.396   1.776   0.266
   56EC       H  557   3.287   1.973   0.427
   56EC       H  558   3.401   2.086   0.351
   56EC       H  559   3.429   1.947   0.157
   56EC       H  560   3.258   1.914   0.194
   57EC       O  561   1.470   0.512   0.858
   57EC       C  562   1.398   0.440   0.791
   57EC       O  563   1.437   0.377   0.677
   57EC       C  564   1.320   0.325   0.617
   57EC       C  565   1.228   0.308   0.734
   57EC       O  566   1.267   0.414   0.821
   57EC       H  567   1.283   0.398   0.545
   57EC       H  568   1.340   0.231   0.566
   57EC       H  569   1.243   0.213   0.785
   57EC       H  570   1.122   0.318   0.707
   58EC       O  571   2.390   3.634   1.146
   58EC       C  572   2.382   3.618   1.025
   58EC       O  573   2.276   3.657   0.949
   58EC       C  574   2.293   3.599   0.822
   58EC       C  575   2.441   3.580   0.814
   58EC       O  576   2.477   3.556   0.949
   58EC       H  577   2.238   3.504   0.820
   58EC       H  578   2.255   3.664   0.743
   58EC       H  579   2.492   3.669   0.779
   58EC       H  580   2.470   3.495   0.751
   59EC       O  581   3.694   2.222   1.358
   59EC       C  582   3.605   2.298   1.389
   59EC       O  583   3.488   2.261   1.448
   59EC       C  584   3.403   2.373   1.444
   59EC       C  585   3.499   2.487   1.439
   59EC       O  586   3.609   2.433   1.367
   59EC       H  587   3.340   2.366   1.354
   59EC       H  588   3.338   2.377   1.532
   59EC       H  589   3.532   2.518   1.538
   59EC       H  590   3.458   2.575   1.386
   60EC       O  591   0.218   1.943   1.212
   60EC       C  592   0.222   2.012   1.313
   60EC       O  593   0.113   2.053   1.383
   60EC       C  594   0.157   2.150   1.475
   60EC       C  595   0.301   2.113   1.495
   60EC       O  596   0.338   2.060   1.368
   60EC       H  597   0.145   2.249   1.430
   60EC       H  598   0.101   2.146   1.568
   60EC       H  599   0.314   2.036   1.571
   60EC       H  600   0.364   2.199   1.520
   61EC       O  601   2.105   3.071   0.862
   61EC       C  602   2.216   3.116   0.884
   61EC       O  603   2.256   3.243   0.853
   61EC       C  604   2.395   3.247   0.872
   61EC       C  605   2.418   3.140   0.973
   61EC       O  606   2.317   3.045   0.944
   61EC       H  607   2.444   3.225   0.776
   61EC       H  608   2.428   3.345   0.907
   61EC       H  609   2.404   3.177   1.076
   61EC       H  610   2.517   3.094   0.965
   62EC       O  611   1.832   0.499   2.271
   62EC       C  612   1.937   0.437   2.278
   62EC       O  613   1.948   0.301   2.273
   62EC       C  614   2.081   0.270   2.309
   62EC       C  615   2.156   0.394   2.272
   62EC       O  616   2.060   0.497   2.294
   62EC       H  617   2.084   0.250   2.417
   62EC       H  618   2.117   0.182   2.256
   62EC       H  619   2.185   0.395   2.167
   62EC       H  620   2.244   0.411   2.335
   63EC       O  621   1.848   2.067   0.784
   63EC       C  622   1.963   2.083   0.745
   63EC       O  623   2.000   2.087   0.614
   63EC       C  624   2.140   2.081   0.611
   63EC       C  625   2.178   2.138   0.744
   63EC       O  626   2.071   2.098   0.827
   63EC       H  627   2.170   1.977   0.600
   63EC       H  628   2.181   2.140   0.528
   63EC       H  629   2.183   2.247   0.743
   63EC       H  630   2.273   2.098   0.782
   64EC       O  631   1.818   1.756   1.432
   64EC       C  632   1.871   1.860   1.465
   64EC       O  633   1.958   1.931   1.387
   64EC       C  634   2.016   2.029   1.469
   64EC       C  635   1.912   2.049   1.575
   64EC       O  636   1.853   1.921   1.586
   64EC       H  637   2.110   1.990   1.510
   64EC       H  638   2.036   2.121   1.414
   64EC       H  639   1.835   2.121   1.544
   64EC       H  640   1.954   2.081   1.671
   65EC       O  641   2.999   3.208   2.658
   65EC       C  642   3.066   3.239   2.755
   65EC       O  643   3.015   3.276   2.876
   65EC       C  644   3.122   3.327   2.952
   65EC       C  645   3.240   3.257   2.892
   65EC       O  646   3.202   3.241   2.756
   65EC       H  647   3.126   3.435   2.938
   65EC       H  648   3.110   3.304   3.058
   65EC       H  649   3.257   3.159   2.936
   65EC       H  650   3.333   3.316   2.900
   66EC       O  651   1.439   3.929   1.273
   66EC       C  652   1.500   3.924   1.167
   66EC       O  653   1.572   4.027   1.114
   66EC       C  654   1.605   3.991   0.983
   66EC       C  655   1.604   3.841   0.989
   66EC       O  656   1.504   3.814   1.086
   66EC       H  657   1.529   4.030   0.915
   66EC       H  658   1.703   4.030   0.954
   66EC       H  659   1.699   3.800   1.024
   66EC       H  660   1.578   3.795   0.893
   67EC       O  661   3.936   2.737   1.744
   67EC       C  662   3.841   2.813   1.757
   67EC       O  663   3.832   2.910   1.853
   67EC       C  664   3.699   2.956   1.850
   67EC       C  665   3.656   2.926   1.710
   67EC       O  666   3.729   2.809   1.678
   67EC       H  667   3.641   2.900   1.925
   67EC       H  668   3.694   3.063   1.874
   67EC       H  669   3.684   3.006   1.641
   67EC       H  670   3.548   2.908   1.702
   68EC       O  671   1.201   2.866   1.293
   68EC       C  672   1.175   2.985   1.306
   68EC       O  673   1.260   3.087   1.274
   68EC       C  674   1.203   3.204   1.326
   68EC       C  675   1.057   3.172   1.331
   68EC       O  676   1.056   3.032   1.355
   68EC       H  677   1.245   3.222   1.426
   68EC       H  678   1.224   3.291   1.263
   68EC       H  679   1.008   3.192   1.235
   68EC       H  680   1.004   3.225   1.410
   69EC       O  681   2.398   1.356   0.158
   69EC       C  682   2.519   1.361   0.166
   69EC       O  683   2.589   1.463   0.223
   69EC       C  684   2.725   1.442   0.191
   69EC       C  685   2.732   1.294   0.170
   69EC       O  686   2.603   1.263   0.119
   69EC       H  687   2.748   1.498   0.100
   69EC       H  688   2.791   1.475   0.272
   69EC       H  689   2.746   1.239   0.264
   69EC       H  690   2.810   1.264   0.099
   70EC       O  691   2.169   1.594   0.188
   70EC       C  692   2.153   1.504   0.269
   70EC       O  693   2.197   1.508   0.398
   70EC       C  694   2.183   1.379   0.450
   70EC       C  695   2.072   1.322   0.367
   70EC       O  696   2.090   1.386   0.242
   70EC       H  697   2.277   1.325   0.437
   70EC       H  698   2.158   1.381   0.556
   70EC       H  699   1.973   1.348   0.406
   70EC       H  700   2.079   1.213   0.356
   71EC       O  701   2.635   2.386   2.325
   71EC       C  702   2.655   2.330   2.219
   71EC       O  703   2.594   2.362   2.101
   71EC       C  704   2.626   2.260   2.010
   71EC       C  705   2.755   2.207   2.063
   71EC       O  706   2.742   2.226   2.203
   71EC       H  707   2.546   2.186   2.012
   71EC       H  708   2.635   2.299   1.908
   71EC       H  709   2.841   2.264   2.027
   71EC       H  710   2.770   2.101   2.039
   72EC       O  711   0.865   0.639   2.623
   72EC       C  712   0.792   0.552   2.579
   72EC       O  713   0.834   0.431   2.534
   72EC       C  714   0.725   0.371   2.469
   72EC       C  715   0.607   0.436   2.535
   72EC       O  716   0.656   0.565   2.567
   72EC       H  717   0.730   0.395   2.362
   72EC       H  718   0.724   0.263   2.481
   72EC       H  719   0.579   0.385   2.628
   72EC       H  720   0.520   0.443   2.470
   73EC       O  721   2.832   2.430   3.839
   73EC       C  722   2.807   2.325   3.783
   73EC       O  723   2.899   2.233   3.742
   73EC       C  724   2.832   2.140   3.661
   73EC       C  725   2.691   2.148   3.712
   73EC       O  726   2.680   2.284   3.752
   73EC       H  727   2.841   2.172   3.557
   73EC       H  728   2.874   2.040   3.672
   73EC       H  729   2.674   2.084   3.798
   73EC       H  730   2.617   2.124   3.635
   74EC       O  731   2.912   2.277   0.112
   74EC       C  732   2.808   2.284   0.175
   74EC       O  733   2.799   2.310   0.309
   74EC       C  734   2.666   2.286   0.346
   74EC       C  735   2.591   2.308   0.219
   74EC       O  736   2.684   2.267   0.120
   74EC       H  737   2.658   2.182   0.382
   74EC       H  738   2.634   2.353   0.426
   74EC       H  739   2.566   2.413   0.203
   74EC       H  740   2.499   2.248   0.212
   75EC       O  741   2.572   3.203   0.367
   75EC       C  742   2.524   3.120   0.442
   75EC       O  743   2.529   3.126   0.578
   75EC       C  744   2.485   3.002   0.626
   75EC       C  745   2.398   2.952   0.515
   75EC       O  746   2.459   3.007   0.400
   75EC       H  747   2.573   2.938   0.642
   75EC       H  748   2.431   3.012   0.720
   75EC       H  749   2.295   2.990   0.523
   75EC       H  750   2.395   2.842   0.509
   76EC       O  751   0.232   2.417   3.298
   76EC       C  752   0.299   2.423   3.196
   76EC       O  753   0.414   2.354   3.175
   76EC       C  754   0.472   2.407   3.058
   76EC       C  755   0.355   2.462   2.984
   76EC       O  756   0.268   2.502   3.089
   76EC       H  757   0.544   2.484   3.087
   76EC       H  758   0.524   2.330   3.001
   76EC       H  759   0.305   2.386   2.924
   76EC       H  760   0.380   2.547   2.921
   77EC       O  761   2.610   2.676   0.322
   77EC       C  762   2.577   2.657   0.438
   77EC       O  763   2.502   2.551   0.481
   77EC       C  764   2.465   2.579   0.614
   77EC       C  765   2.573   2.672   0.660
   77EC       O  766   2.608   2.741   0.541
   77EC       H  767   2.366   2.627   0.613
   77EC       H  768   2.460   2.488   0.674
   77EC       H  769   2.660   2.618   0.697
   77EC       H  770   2.538   2.742   0.737
   78EC       O  771   1.503   3.629   3.667
   78EC       C  772   1.562   3.689   3.579
   78EC       O  773   1.642   3.798   3.599
   78EC       C  774   1.670   3.852   3.472
   78EC       C  775   1.654   3.735   3.381
   78EC       O  776   1.554   3.657   3.446
   78EC       H  777   1.596   3.931   3.452
   78EC       H  778   1.770   3.895   3.467
   78EC       H  779   1.745   3.675   3.374
   78EC       H  780   1.621   3.763   3.280
   79EC       O  781   3.749   0.561   2.614
   79EC       C  782   3.791   0.676   2.605
   79EC       O  783   3.713   0.787   2.599
   79EC       C  784   3.797   0.894   2.565
   79EC       C  785   3.931   0.849   2.615
   79EC       O  786   3.924   0.708   2.599
   79EC       H  787   3.795   0.907   2.456
   79EC       H  788   3.765   0.987   2.612
   79EC       H  789   3.945   0.872   2.720
   79EC       H  790   4.014   0.890   2.557
   80EC       O  791   0.302   0.897   0.203
   80EC       C  792   0.318   1.005   0.258
   80EC       O  793   0.219   1.075   0.322
   80EC       C  794   0.271   1.203   0.349
   80EC       C  795   0.419   1.179   0.354
   80EC       O  796   0.437   1.073   0.261
   80EC       H  797   0.242   1.269   0.267
   80EC       H  798   0.232   1.243   0.443
   80EC       H  799   0.452   1.146   0.453
   80EC       H  800   0.477   1.267   0.324
   81EC       O  801   1.476   3.609   0.452
   81EC       C  802   1.413   3.610   0.556
   81EC       O  803   1.404   3.505   0.643
   81EC       C  804   1.304   3.538   0.736
   81EC       C  805   1.304   3.688   0.734
   81EC       O  806   1.341   3.718   0.600
   81EC       H  807   1.209   3.496   0.701
   81EC       H  808   1.326   3.498   0.835
   81EC       H  809   1.380   3.729   0.802
   81EC       H  810   1.207   3.731   0.758
   82EC       O  811   2.127   3.839   0.694
   82EC       C  812   2.120   3.864   0.574
   82EC       O  813   2.015   3.928   0.515
   82EC       C  814   2.033   3.915   0.376
   82EC       C  815   2.181   3.897   0.363
   82EC       O  816   2.216   3.830   0.483
   82EC       H  817   1.977   3.827   0.342
   82EC       H  818   1.997   4.003   0.323
   82EC       H  819   2.233   3.993   0.360
   82EC       H  820   2.209   3.838   0.275
   83EC       O  821   1.645   0.536   2.381
   83EC       C  822   1.558   0.622   2.381
   83EC       O  823   1.579   0.754   2.353
   83EC       C  824   1.462   0.822   2.388
   83EC       C  825   1.357   0.716   2.376
   83EC       O  826   1.427   0.598   2.411
   83EC       H  827   1.472   0.859   2.491
   83EC       H  828   1.443   0.907   2.321
   83EC       H  829   1.319   0.707   2.274
   83EC       H  830   1.272   0.732   2.444
   84EC       O  831   3.990   3.126   2.714
   84EC       C  832   3.904   3.163   2.635
   84EC       O  833   3.819   3.080   2.569
   84EC       C  834   3.754   3.158   2.471
   84EC       C  835   3.761   3.296   2.529
   84EC       O  836   3.883   3.294   2.602
   84EC       H  837   3.811   3.149   2.377
   84EC       H  838   3.652   3.125   2.455
   84EC       H  839   3.679   3.316   2.598
   84EC       H  840   3.764   3.374   2.452
   85EC       O  841   0.501   2.608   0.781
   85EC       C  842   0.523   2.664   0.675
   85EC       O  843   0.438   2.750   0.613
   85EC       C  844   0.489   2.772   0.484
   85EC       C  845   0.636   2.747   0.502
   85EC       O  846   0.638   2.647   0.603
   85EC       H  847   0.443   2.701   0.415
   85EC       H  848   0.469   2.874   0.450
   85EC       H  849   0.689   2.835   0.537
   85EC       H  850   0.684   2.710   0.410
   86EC       O  851   0.967   3.580   1.858
   86EC       C  852   0.981   3.509   1.760
   86EC       O  853   1.079   3.415   1.746
   86EC       C  854   1.077   3.374   1.612
   86EC       C  855   0.936   3.402   1.571
   86EC       O  856   0.901   3.515   1.649
   86EC       H  857   1.149   3.434   1.556
   86EC       H  858   1.103   3.268   1.602
   86EC       H  859   0.868   3.319   1.596
   86EC       H  860   0.926   3.424   1.464
   87EC       O  861   0.567   1.309   1.444
   87EC       C  862   0.446   1.318   1.458
   87EC       O  863   0.359   1.213   1.447
   87EC       C  864   0.229   1.268   1.445
   87EC       C  865   0.247   1.398   1.518
   87EC       O  866   0.380   1.435   1.485
   87EC       H  867   0.199   1.283   1.341
   87EC       H  868   0.157   1.202   1.494
   87EC       H  869   0.239   1.385   1.626
   87EC       H  870   0.176   1.475   1.485
   88EC       O  871   2.992   0.160   2.548
   88EC       C  872   2.918   0.176   2.644
   88EC       O  873   2.802   0.107   2.665
   88EC       C  874   2.736   0.171   2.771
   88EC       C  875   2.847   0.236   2.846
   88EC       O  876   2.941   0.267   2.744
   88EC       H  877   2.666   0.244   2.729
   88EC       H  878   2.680   0.100   2.832
   88EC       H  879   2.894   0.168   2.918
   88EC       H  880   2.816   0.327   2.898
   89EC       O  881   1.615   0.721   1.462
   89EC       C  882   1.558   0.803   1.532
   89EC       O  883   1.431   0.849   1.510
   89EC       C  884   1.412   0.958   1.597
   89EC       C  885   1.507   0.929   1.709
   89EC       O  886   1.613   0.861   1.643
   89EC       H  887   1.438   1.050   1.543
   89EC       H  888   1.308   0.964   1.631
   89EC       H  889   1.463   0.862   1.784
   89EC       H  890   1.544   1.019   1.758
   90EC       O  891   2.225   2.466   3.122
   90EC       C  892   2.280   2.384   3.194
   90EC       O  893   2.250   2.251   3.198
   90EC       C  894   2.317   2.198   3.310
   90EC       C  895   2.432   2.292   3.328
   90EC       O  896   2.380   2.416   3.283
   90EC       H  897   2.248   2.200   3.396
   90EC       H  898   2.350   2.095   3.292
   90EC       H  899   2.518   2.264   3.265
   90EC       H  900   2.465   2.299   3.432
   91EC       O  901   0.817   1.398   1.198
   91EC       C  902   0.760   1.378   1.092
   91EC       O  903   0.780   1.269   1.012
   91EC       C  904   0.716   1.295   0.890
   91EC       C  905   0.609   1.393   0.929
   91EC       O  906   0.669   1.464   1.037
   91EC       H  907   0.789   1.339   0.821
   91EC       H  908   0.675   1.205   0.846
   91EC       H  909   0.519   1.343   0.964
   91EC       H  910   0.583   1.462   0.848
   92EC       O  911   1.071   2.713   2.884
   92EC       C  912   1.143   2.812   2.890
   92EC       O  913   1.263   2.824   2.828
   92EC       C  914   1.324   2.940   2.879
   92EC       C  915   1.207   3.023   2.922
   92EC       O  916   1.112   2.925   2.961
   92EC       H  917   1.388   2.911   2.963
   92EC       H  918   1.384   2.990   2.803
   92EC       H  919   1.166   3.082   2.840
   92EC       H  920   1.230   3.089   3.006
   93EC       O  921   0.728   1.973   1.874
   93EC       C  922   0.656   2.070   1.891
   93EC       O  923   0.520   2.066   1.897
   93EC       C  924   0.475   2.199   1.892
   93EC       C  925   0.592   2.276   1.945
   93EC       O  926   0.703   2.198   1.904
   93EC       H  927   0.453   2.224   1.788
   93EC       H  928   0.385   2.214   1.952
   93EC       H  929   0.591   2.282   2.055
   93EC       H  930   0.598   2.378   1.905
   94EC       O  931   0.638   2.246   1.672
   94EC       C  932   0.754   2.211   1.690
   94EC       O  933   0.859   2.295   1.709
   94EC       C  934   0.976   2.217   1.702
   94EC       C  935   0.927   2.081   1.741
   94EC       O  936   0.793   2.080   1.693
   94EC       H  937   1.013   2.219   1.599
   94EC       H  938   1.053   2.254   1.769
   94EC       H  939   0.926   2.067   1.850
   94EC       H  940   0.985   2.000   1.696
   95EC       O  941   0.714   3.085   1.882
   95EC       C  942   0.727   3.195   1.933
   95EC       O  943   0.626   3.284   1.953
   95EC       C  944   0.686   3.406   1.989
   95EC       C  945   0.817   3.363   2.048
   95EC       O  946   0.848   3.246   1.975
   95EC       H  947   0.699   3.467   1.899
   95EC       H  948   0.625   3.462   2.061
   95EC       H  949   0.808   3.338   2.154
   95EC       H  950   0.896   3.438   2.036
   96EC       O  951   0.760   0.917   3.335
   96EC       C  952   0.882   0.909   3.342
   96EC       O  953   0.958   0.819   3.274
   96EC       C  954   1.087   0.825   3.329
   96EC       C  955   1.093   0.964   3.384
   96EC       O  956   0.959   0.989   3.422
   96EC       H  957   1.095   0.749   3.408
   96EC       H  958   1.164   0.807   3.254
   96EC       H  959   1.123   1.037   3.308
   96EC       H  960   1.160   0.973   3.470
   97EC       O  961   0.184   0.937   3.898
   97EC       C  962   0.304   0.956   3.905
   97EC       O  963   0.399   0.861   3.884
   97EC       C  964   0.522   0.915   3.926
   97EC       C  965   0.499   1.063   3.911
   97EC       O  966   0.360   1.076   3.937
   97EC       H  967   0.539   0.886   4.031
   97EC       H  968   0.605   0.880   3.865
   97EC       H  969   0.520   1.097   3.810
   97EC       H  970   0.558   1.122   3.982
   98EC       O  971   0.962   3.069   3.618
   98EC       C  972   1.045   3.136   3.678
   98EC       O  973   1.122   3.233   3.622
   98EC       C  974   1.221   3.267   3.716
   98EC       C  975   1.156   3.231   3.846
   98EC       O  976   1.074   3.120   3.811
   98EC       H  977   1.310   3.207   3.696
   98EC       H  978   1.246   3.373   3.711
   98EC       H  979   1.093   3.311   3.884
   98EC       H  980   1.228   3.202   3.923
   99EC       O  981   0.608   2.537   2.882
   99EC       C  982   0.636   2.633   2.952
   99EC       O  983   0.548   2.699   3.033
   99EC       C  984   0.611   2.816   3.076
   99EC       C  985   0.756   2.781   3.067
   99EC       O  986   0.760   2.690   2.958
   99EC       H  987   0.584   2.897   3.008
   99EC       H  988   0.582   2.843   3.177
   99EC       H  989   0.792   2.730   3.157
   99EC       H  990   0.820   2.868   3.047
  100EC       O  991   1.876   2.765   3.205
  100EC       C  992   1.790   2.769   3.291
  100EC       O  993   1.798   2.710   3.413
  100EC       C  994   1.670   2.717   3.470
  100EC       C  995   1.609   2.836   3.403
  100EC       O  996   1.670   2.834   3.275
  100EC       H  997   1.616   2.624   3.447
  100EC       H  998   1.675   2.729   3.579
  100EC       H  999   1.636   2.930   3.453
  100EC       H 1000   1.500   2.830   3.394
  101EC       O 1001   4.000   3.691   0.888
  101EC       C 1002   3.964   3.685   1.004
  101EC       O 1003   4.040   3.639   1.107
  101EC       C 1004   3.955   3.626   1.218
  101EC       C 1005   3.847   3.726   1.189
  101EC       O 1006   3.840   3.725   1.047
  101EC       H 1007   3.917   3.523   1.221
  101EC       H 1008   4.007   3.648   1.312
  101EC       H 1009   3.874   3.826   1.223
  101EC       H 1010   3.750   3.698   1.233
  102EC       O 1011   2.607   2.361   2.884
  102EC       C 1012   2.715   2.305   2.890
  102EC       O 1013   2.752   2.216   2.986
  102EC       C 1014   2.890   2.194   2.972
  102EC       C 1015   2.914   2.225   2.828
  102EC       O 1016   2.817   2.326   2.800
  102EC       H 1017   2.943   2.263   3.039
  102EC       H 1018   2.917   2.092   2.998
  102EC       H 1019   2.895   2.139   2.763
  102EC       H 1020   3.015   2.263   2.808
  103EC       O 1021   2.077   3.431   2.068
  103EC       C 1022   2.133   3.324   2.050
  103EC       O 1023   2.189   3.248   2.147
  103EC       C 1024   2.263   3.147   2.083
  103EC       C 1025   2.193   3.134   1.951
  103EC       O 1026   2.147   3.266   1.927
  103EC       H 1027   2.367   3.181   2.072
  103EC       H 1028   2.262   3.054   2.140
  103EC       H 1029   2.107   3.066   1.957
  103EC       H 1030   2.260   3.101   1.871
  104EC       O 1031   1.439   2.723   3.601
  104EC       C 1032   1.388   2.782   3.695
  104EC       O 1033   1.438   2.895   3.753
  104EC       C 1034   1.364   2.916   3.871
  104EC       C 1035   1.234   2.849   3.841
  104EC       O 1036   1.272   2.742   3.756
  104EC       H 1037   1.418   2.868   3.954
  104EC       H 1038   1.353   3.022   3.892
  104EC       H 1039   1.165   2.915   3.788
  104EC       H 1040   1.184   2.811   3.931
  105EC       O 1041   2.541   1.783   2.887
  105EC       C 1042   2.491   1.893   2.907
  105EC       O 1043   2.537   2.010   2.856
  105EC       C 1044   2.469   2.114   2.922
  105EC       C 1045   2.341   2.048   2.964
  105EC       O 1046   2.381   1.913   2.986
  105EC       H 1047   2.529   2.146   3.008
  105EC       H 1048   2.452   2.199   2.856
  105EC       H 1049   2.266   2.050   2.885
  105EC       H 1050   2.299   2.091   3.055
  106EC       O 1051   2.494   1.918   1.085
  106EC       C 1052   2.422   1.821   1.098
  106EC       O 1053   2.291   1.816   1.062
  106EC       C 1054   2.238   1.697   1.116
  106EC       C 1055   2.359   1.609   1.128
  106EC       O 1056   2.463   1.702   1.153
  106EC       H 1057   2.193   1.720   1.213
  106EC       H 1058   2.162   1.654   1.051
  106EC       H 1059   2.380   1.556   1.035
  106EC       H 1060   2.351   1.537   1.210
  107EC       O 1061   2.642   1.477   3.776
  107EC       C 1062   2.571   1.540   3.700
  107EC       O 1063   2.612   1.647   3.626
  107EC       C 1064   2.496   1.707   3.572
  107EC       C 1065   2.399   1.593   3.569
  107EC       O 1066   2.438   1.514   3.680
  107EC       H 1067   2.464   1.786   3.640
  107EC       H 1068   2.514   1.749   3.474
  107EC       H 1069   2.409   1.533   3.478
  107EC       H 1070   2.295   1.625   3.579
  108EC       O 1071   0.818   1.219   2.002
  108EC       C 1072   0.771   1.110   1.974
  108EC       O 1073   0.841   0.993   1.973
  108EC       C 1074   0.758   0.896   1.913
  108EC       C 1075   0.621   0.949   1.940
  108EC       O 1076   0.640   1.090   1.940
  108EC       H 1077   0.781   0.893   1.806
  108EC       H 1078   0.774   0.798   1.956
  108EC       H 1079   0.584   0.919   2.039
  108EC       H 1080   0.548   0.920   1.864
  109EC       O 1081   2.316   3.589   2.331
  109EC       C 1082   2.296   3.636   2.442
  109EC       O 1083   2.185   3.705   2.479
  109EC       C 1084   2.212   3.762   2.605
  109EC       C 1085   2.315   3.670   2.661
  109EC       O 1086   2.385   3.626   2.546
  109EC       H 1087   2.250   3.863   2.589
  109EC       H 1088   2.122   3.766   2.667
  109EC       H 1089   2.271   3.583   2.711
  109EC       H 1090   2.384   3.720   2.731
  110EC       O 1091   2.411   1.544   3.211
  110EC       C 1092   2.505   1.511   3.281
  110EC       O 1093   2.606   1.594   3.320
  110EC       C 1094   2.705   1.513   3.378
  110EC       C 1095   2.628   1.393   3.425
  110EC       O 1096   2.523   1.384   3.330
  110EC       H 1097   2.778   1.487   3.301
  110EC       H 1098   2.756   1.564   3.460
  110EC       H 1099   2.585   1.409   3.524
  110EC       H 1100   2.688   1.302   3.426
  111EC       O 1101   2.113   0.723   1.975
  111EC       C 1102   2.210   0.648   1.972
  111EC       O 1103   2.261   0.581   2.079
  111EC       C 1104   2.384   0.527   2.038
  111EC       C 1105   2.368   0.514   1.890
  111EC       O 1106   2.282   0.622   1.858
  111EC       H 1107   2.464   0.598   2.065
  111EC       H 1108   2.404   0.431   2.086
  111EC       H 1109   2.319   0.420   1.863
  111EC       H 1110   2.462   0.522   1.836
  112EC       O 1111   0.837   2.122   2.585
  112EC       C 1112   0.717   2.102   2.596
  112EC       O 1113   0.658   1.979   2.593
  112EC       C 1114   0.519   2.001   2.583
  112EC       C 1115   0.502   2.137   2.644
  112EC       O 1116   0.624   2.202   2.611
  112EC       H 1117   0.491   1.999   2.477
  112EC       H 1118   0.463   1.924   2.637
  112EC       H 1119   0.493   2.132   2.753
  112EC       H 1120   0.417   2.192   2.603
  113EC       O 1121   1.572   3.701   2.710
  113EC       C 1122   1.584   3.697   2.832
  113EC       O 1123   1.485   3.724   2.921
  113EC       C 1124   1.545   3.732   3.048
  113EC       C 1125   1.668   3.648   3.032
  113EC       O 1126   1.701   3.665   2.895
  113EC       H 1127   1.570   3.838   3.067
  113EC       H 1128   1.479   3.696   3.126
  113EC       H 1129   1.647   3.542   3.050
  113EC       H 1130   1.750   3.680   3.096
  114EC       O 1131   0.323   1.813   1.976
  114EC       C 1132   0.415   1.782   1.901
  114EC       O 1133   0.441   1.841   1.781
  114EC       C 1134   0.537   1.762   1.717
  114EC       C 1135   0.607   1.695   1.831
  114EC       O 1136   0.504   1.682   1.928
  114EC       H 1137   0.485   1.690   1.652
  114EC       H 1138   0.605   1.822   1.656
  114EC       H 1139   0.687   1.757   1.872
  114EC       H 1140   0.648   1.597   1.805
  115EC       O 1141   0.699   3.717   0.898
  115EC       C 1142   0.586   3.762   0.913
  115EC       O 1143   0.544   3.832   1.021
  115EC       C 1144   0.404   3.843   1.011
  115EC       C 1145   0.380   3.831   0.864
  115EC       O 1146   0.485   3.745   0.822
  115EC       H 1147   0.359   3.760   1.068
  115EC       H 1148   0.368   3.938   1.051
  115EC       H 1149   0.390   3.927   0.813
  115EC       H 1150   0.283   3.787   0.840
  116EC       O 1151   3.674   1.413   2.671
  116EC       C 1152   3.712   1.368   2.564
  116EC       O 1153   3.839   1.375   2.517
  116EC       C 1154   3.836   1.335   2.382
  116EC       C 1155   3.715   1.247   2.377
  116EC       O 1156   3.629   1.305   2.475
  116EC       H 1157   3.825   1.425   2.320
  116EC       H 1158   3.927   1.282   2.354
  116EC       H 1159   3.737   1.144   2.406
  116EC       H 1160   3.666   1.247   2.279
  117EC       O 1161   3.357   2.072   2.684
  117EC       C 1162   3.477   2.055   2.697
  117EC       O 1163   3.539   1.934   2.688
  117EC       C 1164   3.671   1.953   2.732
  117EC       C 1165   3.695   2.098   2.704
  117EC       O 1166   3.567   2.155   2.721
  117EC       H 1167   3.676   1.930   2.839
  117EC       H 1168   3.741   1.888   2.679
  117EC       H 1169   3.728   2.114   2.601
  117EC       H 1170   3.768   2.143   2.772
  118EC       O 1171   3.005   3.740   0.710
  118EC       C 1172   2.916   3.790   0.778
  118EC       O 1173   2.816   3.720   0.838
  118EC       C 1174   2.723   3.815   0.885
  118EC       C 1175   2.807   3.937   0.904
  118EC       O 1176   2.906   3.924   0.803
  118EC       H 1177   2.646   3.829   0.808
  118EC       H 1178   2.675   3.782   0.977
  118EC       H 1179   2.856   3.938   1.002
  118EC       H 1180   2.750   4.030   0.892
  119EC       O 1181   0.688   0.819   2.233
  119EC       C 1182   0.806   0.812   2.260
  119EC       O 1183   0.901   0.751   2.183
  119EC       C 1184   1.018   0.743   2.261
  119EC       C 1185   1.002   0.856   2.357
  119EC       O 1186   0.861   0.863   2.375
  119EC       H 1187   1.019   0.646   2.311
  119EC       H 1188   1.107   0.753   2.200
  119EC       H 1189   1.037   0.951   2.316
  119EC       H 1190   1.052   0.838   2.453
  120EC       O 1191   0.620   0.384   3.502
  120EC       C 1192   0.710   0.465   3.484
  120EC       O 1193   0.696   0.600   3.495
  120EC       C 1194   0.813   0.657   3.443
  120EC       C 1195   0.914   0.549   3.463
  120EC       O 1196   0.838   0.430   3.449
  120EC       H 1197   0.797   0.680   3.337
  120EC       H 1198   0.839   0.749   3.495
  120EC       H 1199   0.958   0.552   3.563
  120EC       H 1200   0.995   0.552   3.388
  121EC       O 1201   1.636   1.653   2.008
  121EC       C 1202   1.562   1.555   2.006
  121EC       O 1203   1.427   1.560   1.993
  121EC       C 1204   1.379   1.431   2.020
  121EC       C 1205   1.496   1.344   1.986
  121EC       O 1206   1.607   1.426   2.018
  121EC       H 1207   1.352   1.425   2.127
  121EC       H 1208   1.291   1.407   1.960
  121EC       H 1209   1.499   1.319   1.880
  121EC       H 1210   1.498   1.251   2.044
  122EC       O 1211   2.469   1.059   2.350
  122EC       C 1212   2.424   1.024   2.242
  122EC       O 1213   2.443   0.901   2.187
  122EC       C 1214   2.398   0.909   2.054
  122EC       C 1215   2.298   1.020   2.059
  122EC       O 1216   2.350   1.104   2.161
  122EC       H 1217   2.483   0.933   1.990
  122EC       H 1218   2.353   0.815   2.020
  122EC       H 1219   2.199   0.985   2.089
  122EC       H 1220   2.289   1.074   1.964
  123EC       O 1221   0.511   3.022   0.838
  123EC       C 1222   0.397   3.060   0.819
  123EC       O 1223   0.344   3.175   0.870
  123EC       C 1224   0.205   3.170   0.848
  123EC       C 1225   0.194   3.080   0.729
  123EC       O 1226   0.304   2.992   0.745
  123EC       H 1227   0.157   3.128   0.936
  123EC       H 1228   0.164   3.269   0.828
  123EC       H 1229   0.207   3.135   0.635
  123EC       H 1230   0.100   3.024   0.725
  124EC       O 1231   3.436   1.763   3.468
  124EC       C 1232   3.554   1.733   3.461
  124EC       O 1233   3.658   1.820   3.475
  124EC       C 1234   3.775   1.752   3.436
  124EC       C 1235   3.739   1.608   3.461
  124EC       O 1236   3.599   1.606   3.437
  124EC       H 1237   3.793   1.772   3.330
  124EC       H 1238   3.861   1.784   3.495
  124EC       H 1239   3.757   1.579   3.565
  124EC       H 1240   3.791   1.539   3.395
  125EC       O 1241   1.746   2.444   3.423
  125EC       C 1242   1.861   2.418   3.453
  125EC       O 1243   1.901   2.305   3.519
  125EC       C 1244   2.035   2.325   3.556
  125EC       C 1245   2.084   2.423   3.454
  125EC       O 1246   1.968   2.499   3.425
  125EC       H 1247   2.038   2.366   3.657
  125EC       H 1248   2.091   2.231   3.554
  125EC       H 1249   2.117   2.373   3.362
  125EC       H 1250   2.164   2.487   3.491
  126EC       O 1251   2.846   0.401   3.578
  126EC       C 1252   2.768   0.329   3.518
  126EC       O 1253   2.636   0.315   3.549
  126EC       C 1254   2.588   0.205   3.475
  126EC       C 1255   2.682   0.201   3.358
  126EC       O 1256   2.804   0.249   3.413
  126EC       H 1257   2.596   0.116   3.537
  126EC       H 1258   2.485   0.220   3.444
  126EC       H 1259   2.650   0.268   3.277
  126EC       H 1260   2.695   0.100   3.317
  127EC       O 1261   2.139   2.081   2.003
  127EC       C 1262   2.240   2.012   1.992
  127EC       O 1263   2.241   1.881   1.956
  127EC       C 1264   2.371   1.833   1.979
  127EC       C 1265   2.454   1.957   1.968
  127EC       O 1266   2.366   2.058   2.016
  127EC       H 1267   2.374   1.789   2.079
  127EC       H 1268   2.399   1.757   1.906
  127EC       H 1269   2.482   1.979   1.865
  127EC       H 1270   2.545   1.953   2.030
  128EC       O 1271   2.659   2.637   2.005
  128EC       C 1272   2.755   2.598   2.070
  128EC       O 1273   2.787   2.467   2.092
  128EC       C 1274   2.888   2.466   2.190
  128EC       C 1275   2.952   2.600   2.174
  128EC       O 1276   2.844   2.682   2.131
  128EC       H 1277   2.840   2.454   2.288
  128EC       H 1278   2.958   2.384   2.174
  128EC       H 1279   3.029   2.599   2.096
  128EC       H 1280   2.995   2.638   2.267
  129EC       O 1281   0.579   1.344   1.669
  129EC       C 1282   0.693   1.323   1.631
  129EC       O 1283   0.737   1.205   1.578
  129EC       C 1284   0.877   1.213   1.570
  129EC       C 1285   0.901   1.361   1.560
  129EC       O 1286   0.794   1.415   1.636
  129EC       H 1287   0.919   1.170   1.661
  129EC       H 1288   0.915   1.159   1.484
  129EC       H 1289   0.894   1.397   1.458
  129EC       H 1290   0.997   1.391   1.602
  130EC       O 1291   3.541   0.515   1.736
  130EC       C 1292   3.619   0.594   1.686
  130EC       O 1293   3.618   0.634   1.556
  130EC       C 1294   3.738   0.704   1.534
  130EC       C 1295   3.773   0.754   1.670
  130EC       O 1296   3.722   0.653   1.755
  130EC       H 1297   3.812   0.634   1.494
  130EC       H 1298   3.724   0.785   1.462
  130EC       H 1299   3.723   0.849   1.693
  130EC       H 1300   3.881   0.766   1.685
  131EC       O 1301   3.564   0.564   3.562
  131EC       C 1302   3.447   0.583   3.588
  131EC       O 1303   3.360   0.655   3.512
  131EC       C 1304   3.244   0.674   3.588
  131EC       C 1305   3.246   0.557   3.681
  131EC       O 1306   3.385   0.534   3.701
  131EC       H 1307   3.252   0.769   3.641
  131EC       H 1308   3.154   0.675   3.526
  131EC       H 1309   3.201   0.468   3.637
  131EC       H 1310   3.197   0.577   3.777
  132EC       O 1311   3.311   1.517   1.132
  132EC       C 1312   3.351   1.404   1.154
  132EC       O 1313   3.271   1.296   1.176
  132EC       C 1314   3.354   1.192   1.221
  132EC       C 1315   3.487   1.228   1.163
  132EC       O 1316   3.483   1.370   1.160
  132EC       H 1317   3.355   1.194   1.331
  132EC       H 1318   3.319   1.095   1.187
  132EC       H 1319   3.498   1.191   1.060
  132EC       H 1320   3.571   1.193   1.223
  133EC       O 1321   0.852   2.012   3.290
  133EC       C 1322   0.891   2.070   3.390
  133EC       O 1323   1.010   2.046   3.452
  133EC       C 1324   1.006   2.113   3.576
  133EC       C 1325   0.908   2.224   3.550
  133EC       O 1326   0.819   2.166   3.456
  133EC       H 1327   0.970   2.043   3.652
  133EC       H 1328   1.104   2.151   3.604
  133EC       H 1329   0.955   2.311   3.505
  133EC       H 1330   0.854   2.255   3.640
  134EC       O 1331   1.682   2.441   2.157
  134EC       C 1332   1.775   2.368   2.125
  134EC       O 1333   1.767   2.233   2.114
  134EC       C 1334   1.899   2.185   2.101
  134EC       C 1335   1.971   2.303   2.042
  134EC       O 1336   1.901   2.413   2.097
  134EC       H 1337   1.936   2.159   2.200
  134EC       H 1338   1.903   2.097   2.036
  134EC       H 1339   1.962   2.306   1.933
  134EC       H 1340   2.077   2.306   2.069
  135EC       O 1341   1.997   3.820   2.486
  135EC       C 1342   1.879   3.850   2.481
  135EC       O 1343   1.785   3.781   2.410
  135EC       C 1344   1.668   3.860   2.410
  135EC       C 1345   1.684   3.941   2.535
  135EC       O 1346   1.824   3.957   2.546
  135EC       H 1347   1.668   3.922   2.320
  135EC       H 1348   1.578   3.798   2.412
  135EC       H 1349   1.647   3.888   2.623
  135EC       H 1350   1.634   4.039   2.529
  136EC       O 1351   3.766   2.375   3.606
  136EC       C 1352   3.795   2.256   3.604
  136EC       O 1353   3.718   2.157   3.657
  136EC       C 1354   3.796   2.040   3.657
  136EC       C 1355   3.894   2.065   3.546
  136EC       O 1356   3.910   2.206   3.550
  136EC       H 1357   3.846   2.032   3.755
  136EC       H 1358   3.736   1.951   3.640
  136EC       H 1359   3.853   2.037   3.449
  136EC       H 1360   3.990   2.015   3.562
  137DMC      C 1361   3.096   3.355   0.405
  137DMC      O 1362   2.975   3.320   0.474
  137DMC      C 1363   2.933   3.413   0.563
  137DMC      O 1364   2.989   3.519   0.587
  137DMC      O 1365   2.819   3.368   0.621
  137DMC      C 1366   2.764   3.457   0.717
  137DMC      H 1367   3.179   3.367   0.476
  137DMC      H 1368   3.121   3.274   0.336
  137DMC      H 1369   3.082   3.447   0.348
  137DMC      H 1370   2.673   3.412   0.758
  137DMC      H 1371   2.835   3.472   0.800
  137DMC      H 1372   2.738   3.552   0.671
  138DMC      C 1373   3.974   3.219   1.829
  138DMC      O 1374   3.980   3.352   1.882
  138DMC      C 1375   3.914   3.444   1.807
  138DMC      O 1376   3.853   3.421   1.704
  138DMC      O 1377   3.927   3.565   1.867
  138DMC      C 1378   3.862   3.671   1.798
  138DMC      H 1379   4.019   3.215   1.730
  138DMC      H 1380   4.030   3.153   1.896
  138DMC      H 1381   3.870   3.184   1.825
  138DMC      H 1382   3.879   3.764   1.854
  138DMC      H 1383   3.904   3.683   1.698
  138DMC      H 1384   3.754   3.652   1.793
  139DMC      C 1385   0.909   2.883   2.049
  139DMC      O 1386   1.017   2.958   2.106
  139DMC      C 1387   1.118   2.880   2.153
  139DMC      O 1388   1.123   2.758   2.150
  139DMC      O 1389   1.214   2.962   2.204
  139DMC      C 1390   1.326   2.893   2.257
  139DMC      H 1391   0.864   2.817   2.123
  139DMC      H 1392   0.833   2.954   2.014
  139DMC      H 1393   0.944   2.825   1.963
  139DMC      H 1394   1.397   2.968   2.296
  139DMC      H 1395   1.296   2.828   2.340
  139DMC      H 1396   1.376   2.836   2.179
  140DMC      C 1397   2.601   3.406   1.475
  140DMC      O 1398   2.572   3.459   1.605
  140DMC      C 1399   2.527   3.366   1.693
  140DMC      O 1400   2.511   3.247   1.669
  140DMC      O 1401   2.504   3.428   1.811
  140DMC      C 1402   2.456   3.341   1.913
  140DMC      H 1403   2.511   3.363   1.429
  140DMC      H 1404   2.636   3.488   1.411
  140DMC      H 1405   2.680   3.331   1.481
  140DMC      H 1406   2.439   3.400   2.004
  140DMC      H 1407   2.360   3.296   1.883
  140DMC      H 1408   2.530   3.264   1.935
  141DMC      C 1409   2.438   1.495   2.435
  141DMC      O 1410   2.535   1.399   2.391
  141DMC      C 1411   2.557   1.299   2.480
  141DMC      O 1412   2.504   1.287   2.589
  141DMC      O 1413   2.650   1.215   2.427
  141DMC      C 1414   2.683   1.105   2.511
  141DMC      H 1415   2.472   1.544   2.527
  141DMC      H 1416   2.427   1.570   2.357
  141DMC      H 1417   2.341   1.447   2.451
  141DMC      H 1418   2.759   1.044   2.460
  141DMC      H 1419   2.727   1.141   2.606
  141DMC      H 1420   2.595   1.043   2.530
  142DMC      C 1421   0.156   2.793   0.508
  142DMC      O 1422   0.118   2.811   0.645
  142DMC      C 1423   0.182   2.727   0.731
  142DMC      O 1424   0.264   2.642   0.700
  142DMC      O 1425   0.138   2.754   0.857
  142DMC      C 1426   0.197   2.673   0.957
  142DMC      H 1427   0.132   2.692   0.474
  142DMC      H 1428   0.100   2.864   0.448
  142DMC      H 1429   0.263   2.813   0.495
  142DMC      H 1430   0.155   2.701   1.054
  142DMC      H 1431   0.173   2.567   0.939
  142DMC      H 1432   0.305   2.688   0.960
  143DMC      C 1433   1.425   3.592   1.121
  143DMC      O 1434   1.447   3.624   0.983
  143DMC      C 1435   1.535   3.541   0.921
  143DMC      O 1436   1.593   3.447   0.972
  143DMC      O 1437   1.547   3.582   0.792
  143DMC      C 1438   1.636   3.503   0.715
  143DMC      H 1439   1.519   3.600   1.178
  143DMC      H 1440   1.354   3.663   1.162
  143DMC      H 1441   1.383   3.492   1.131
  143DMC      H 1442   1.640   3.544   0.613
  143DMC      H 1443   1.738   3.509   0.757
  143DMC      H 1444   1.602   3.399   0.710
  144DMC      C 1445   0.687   2.250   3.265
  144DMC      O 1446   0.820   2.301   3.281
  144DMC      C 1447   0.825   2.425   3.334
  144DMC      O 1448   0.728   2.493   3.366
  144DMC      O 1449   0.955   2.462   3.345
  144DMC      C 1450   0.974   2.591   3.399
  144DMC      H 1451   0.629   2.314   3.196
  144DMC      H 1452   0.693   2.150   3.222
  144DMC      H 1453   0.636   2.243   3.361
  144DMC      H 1454   1.082   2.611   3.403
  144DMC      H 1455   0.928   2.667   3.335
  144DMC      H 1456   0.934   2.597   3.500
  145DMC      C 1457   2.824   3.412   3.184
  145DMC      O 1458   2.958   3.366   3.204
  145DMC      C 1459   2.965   3.242   3.260
  145DMC      O 1460   2.871   3.173   3.293
  145DMC      O 1461   3.097   3.210   3.272
  145DMC      C 1462   3.119   3.082   3.330
  145DMC      H 1463   2.771   3.420   3.280
  145DMC      H 1464   2.828   3.511   3.139
  145DMC      H 1465   2.769   3.346   3.117
  145DMC      H 1466   3.227   3.066   3.337
  145DMC      H 1467   3.078   3.079   3.432
  145DMC      H 1468   3.075   3.004   3.268
  146DMC      C 1469   2.018   2.758   1.652
  146DMC      O 1470   2.151   2.745   1.703
  146DMC      C 1471   2.236   2.840   1.658
  146DMC      O 1472   2.209   2.930   1.581
  146DMC      O 1473   2.358   2.817   1.713
  146DMC      C 1474   2.458   2.910   1.674
  146DMC      H 1475   2.017   2.749   1.543
  146DMC      H 1476   1.957   2.678   1.694
  146DMC      H 1477   1.974   2.854   1.682
  146DMC      H 1478   2.552   2.882   1.723
  146DMC      H 1479   2.474   2.905   1.565
  146DMC      H 1480   2.431   3.011   1.704
  147DMC      C 1481   1.913   1.367   3.964
  147DMC      O 1482   1.814   1.287   4.030
  147DMC      C 1483   1.773   1.180   3.957
  147DMC      O 1484   1.813   1.150   3.845
  147DMC      O 1485   1.680   1.112   4.030
  147DMC      C 1486   1.629   0.998   3.964
  147DMC      H 1487   1.873   1.409   3.871
  147DMC      H 1488   1.939   1.450   4.030
  147DMC      H 1489   2.003   1.309   3.944
  147DMC      H 1490   1.555   0.951   4.030
  147DMC      H 1491   1.578   1.026   3.871
  147DMC      H 1492   1.708   0.926   3.945
  148DMC      C 1493   2.135   1.223   2.983
  148DMC      O 1494   2.177   1.098   2.926
  148DMC      C 1495   2.154   0.991   3.006
  148DMC      O 1496   2.103   0.994   3.117
  148DMC      O 1497   2.198   0.880   2.941
  148DMC      C 1498   2.180   0.760   3.015
  148DMC      H 1499   2.189   1.243   3.076
  148DMC      H 1500   2.157   1.302   2.911
  148DMC      H 1501   2.027   1.222   3.001
  148DMC      H 1502   2.219   0.677   2.955
  148DMC      H 1503   2.237   0.763   3.109
  148DMC      H 1504   2.074   0.742   3.034
  149DMC      C 1505   1.470   3.136   2.648
  149DMC      O 1506   1.374   3.201   2.732
  149DMC      C 1507   1.268   3.251   2.666
  149DMC      O 1508   1.250   3.246   2.545
  149DMC      O 1509   1.185   3.309   2.756
  149DMC      C 1510   1.068   3.367   2.699
  149DMC      H 1511   1.512   3.207   2.575
  149DMC      H 1512   1.552   3.099   2.710
  149DMC      H 1513   1.425   3.051   2.596
  149DMC      H 1514   1.009   3.412   2.779
  149DMC      H 1515   1.096   3.447   2.628
  149DMC      H 1516   1.008   3.290   2.649
  150DMC      C 1517   2.157   3.191   1.172
  150DMC      O 1518   2.014   3.199   1.183
  150DMC      C 1519   1.966   3.325   1.170
  150DMC      O 1520   2.032   3.426   1.151
  150DMC      O 1521   1.830   3.319   1.182
  150DMC      C 1522   1.767   3.446   1.170
  150DMC      H 1523   2.205   3.250   1.251
  150DMC      H 1524   2.186   3.086   1.184
  150DMC      H 1525   2.190   3.225   1.074
  150DMC      H 1526   1.658   3.431   1.182
  150DMC      H 1527   1.800   3.513   1.250
  150DMC      H 1528   1.785   3.489   1.072
  151DMC      C 1529   2.574   3.287   3.656
  151DMC      O 1530   2.460   3.243   3.581
  151DMC      C 1531   2.366   3.340   3.564
  151DMC      O 1532   2.373   3.454   3.606
  151DMC      O 1533   2.264   3.287   3.492
  151DMC      C 1534   2.158   3.378   3.467
  151DMC      H 1535   2.545   3.318   3.757
  151DMC      H 1536   2.644   3.203   3.664
  151DMC      H 1537   2.625   3.368   3.604
  151DMC      H 1538   2.081   3.326   3.410
  151DMC      H 1539   2.113   3.412   3.562
  151DMC      H 1540   2.194   3.463   3.408
  152DMC      C 1541   3.799   2.707   1.153
  152DMC      O 1542   3.853   2.839   1.168
  152DMC      C 1543   3.833   2.892   1.291
  152DMC      O 1544   3.774   2.837   1.384
  152DMC      O 1545   3.888   3.016   1.294
  152DMC      C 1546   3.873   3.083   1.418
  152DMC      H 1547   3.691   2.707   1.167
  152DMC      H 1548   3.821   2.673   1.051
  152DMC      H 1549   3.846   2.637   1.222
  152DMC      H 1550   3.920   3.181   1.410
  152DMC      H 1551   3.767   3.098   1.441
  152DMC      H 1552   3.923   3.027   1.498
  153DMC      C 1553   3.708   2.226   3.058
  153DMC      O 1554   3.719   2.340   2.971
  153DMC      C 1555   3.601   2.376   2.914
  153DMC      O 1556   3.494   2.320   2.929
  153DMC      O 1557   3.625   2.484   2.835
  153DMC      C 1558   3.509   2.532   2.768
  153DMC      H 1559   3.674   2.138   3.002
  153DMC      H 1560   3.807   2.205   3.100
  153DMC      H 1561   3.639   2.247   3.141
  153DMC      H 1562   3.538   2.618   2.707
  153DMC      H 1563   3.469   2.455   2.701
  153DMC      H 1564   3.433   2.564   2.840
  154DMC      C 1565   3.041   0.450   2.588
  154DMC      O 1566   2.899   0.435   2.607
  154DMC      C 1567   2.840   0.359   2.512
  154DMC      O 1568   2.895   0.307   2.417
  154DMC      O 1569   2.707   0.352   2.542
  154DMC      C 1570   2.632   0.275   2.449
  154DMC      H 1571   3.062   0.501   2.493
  154DMC      H 1572   3.080   0.512   2.670
  154DMC      H 1573   3.091   0.353   2.592
  154DMC      H 1574   2.527   0.276   2.480
  154DMC      H 1575   2.637   0.320   2.348
  154DMC      H 1576   2.667   0.172   2.447
  155DMC      C 1577   1.724   1.438   0.214
  155DMC      O 1578   1.694   1.319   0.288
  155DMC      C 1579   1.794   1.227   0.287
  155DMC      O 1580   1.901   1.239   0.229
  155DMC      O 1581   1.754   1.120   0.360
  155DMC      C 1582   1.850   1.016   0.367
  155DMC      H 1583   1.741   1.414   0.108
  155DMC      H 1584   1.638   1.505   0.221
  155DMC      H 1585   1.811   1.489   0.256
  155DMC      H 1586   1.808   0.935   0.427
  155DMC      H 1587   1.871   0.976   0.266
  155DMC      H 1588   1.941   1.051   0.414
  156DMC      C 1589   1.151   2.725   1.023
  156DMC      O 1590   1.077   2.847   1.005
  156DMC      C 1591   0.965   2.854   1.081
  156DMC      O 1592   0.925   2.769   1.159
  156DMC      O 1593   0.905   2.973   1.056
  156DMC      C 1594   0.785   2.994   1.129
  156DMC      H 1595   1.090   2.638   0.995
  156DMC      H 1596   1.239   2.729   0.958
  156DMC      H 1597   1.185   2.715   1.127
  156DMC      H 1598   0.744   3.092   1.101
  156DMC      H 1599   0.711   2.917   1.103
  156DMC      H 1600   0.805   2.994   1.236
  157DMC      C 1601   2.478   1.266   2.877
  157DMC      O 1602   2.498   1.154   2.790
  157DMC      C 1603   2.474   1.034   2.849
  157DMC      O 1604   2.439   1.016   2.965
  157DMC      O 1605   2.496   0.936   2.757
  157DMC      C 1606   2.475   0.805   2.806
  157DMC      H 1607   2.546   1.261   2.963
  157DMC      H 1608   2.500   1.357   2.821
  157DMC      H 1609   2.374   1.270   2.911
  157DMC      H 1610   2.496   0.734   2.725
  157DMC      H 1611   2.544   0.783   2.889
  157DMC      H 1612   2.371   0.792   2.837
  158DMC      C 1613   2.315   2.326   1.883
  158DMC      O 1614   2.190   2.395   1.898
  158DMC      C 1615   2.202   2.520   1.947
  158DMC      O 1616   2.307   2.575   1.979
  158DMC      O 1617   2.078   2.575   1.956
  158DMC      C 1618   2.077   2.707   2.007
  158DMC      H 1619   2.364   2.315   1.980
  158DMC      H 1620   2.294   2.227   1.842
  158DMC      H 1621   2.380   2.379   1.813
  158DMC      H 1622   1.973   2.742   2.011
  158DMC      H 1623   2.117   2.709   2.109
  158DMC      H 1624   2.133   2.774   1.942
  159DMC      C 1625   1.581   3.252   3.926
  159DMC      O 1626   1.699   3.277   3.849
  159DMC      C 1627   1.674   3.314   3.721
  159DMC      O 1628   1.564   3.325   3.670
  159DMC      O 1629   1.793   3.335   3.658
  159DMC      C 1630   1.781   3.373   3.522
  159DMC      H 1631   1.524   3.170   3.883
  159DMC      H 1632   1.612   3.224   4.027
  159DMC      H 1633   1.520   3.342   3.932
  159DMC      H 1634   1.882   3.387   3.481
  159DMC      H 1635   1.731   3.294   3.464
  159DMC      H 1636   1.727   3.468   3.514
  160DMC      C 1637   1.982   1.046   2.744
  160DMC      O 1638   1.855   1.087   2.694
  160DMC      C 1639   1.794   1.181   2.770
  160DMC      O 1640   1.837   1.229   2.873
  160DMC      O 1641   1.675   1.212   2.711
  160DMC      C 1642   1.600   1.310   2.782
  160DMC      H 1643   1.972   1.001   2.844
  160DMC      H 1644   2.023   0.970   2.677
  160DMC      H 1645   2.051   1.130   2.748
  160DMC      H 1646   1.506   1.327   2.728
  160DMC      H 1647   1.575   1.274   2.883
  160DMC      H 1648   1.655   1.404   2.787
  161DMC      C 1649   1.840   1.652   3.635
  161DMC      O 1650   1.770   1.533   3.672
  161DMC      C 1651   1.821   1.420   3.617
  161DMC      O 1652   1.917   1.415   3.542
  161DMC      O 1653   1.747   1.315   3.660
  161DMC      C 1654   1.790   1.190   3.609
  161DMC      H 1655   1.835   1.668   3.527
  161DMC      H 1656   1.791   1.737   3.685
  161DMC      H 1657   1.944   1.648   3.669
  161DMC      H 1658   1.724   1.112   3.648
  161DMC      H 1659   1.783   1.188   3.499
  161DMC      H 1660   1.892   1.168   3.641
  162DMC      C 1661   0.766   2.492   1.035
  162DMC      O 1662   0.666   2.393   1.007
  162DMC      C 1663   0.572   2.382   1.104
  162DMC      O 1664   0.567   2.447   1.207
  162DMC      O 1665   0.483   2.286   1.066
  162DMC      C 1666   0.378   2.265   1.159
  162DMC      H 1667   0.820   2.467   1.127
  162DMC      H 1668   0.837   2.493   0.952
  162DMC      H 1669   0.721   2.591   1.044
  162DMC      H 1670   0.313   2.185   1.120
  162DMC      H 1671   0.419   2.230   1.255
  162DMC      H 1672   0.319   2.355   1.172
  163DMC      C 1673   0.249   3.542   3.491
  163DMC      O 1674   0.356   3.462   3.545
  163DMC      C 1675   0.471   3.470   3.474
  163DMC      O 1676   0.489   3.536   3.373
  163DMC      O 1677   0.563   3.391   3.535
  163DMC      C 1678   0.689   3.390   3.470
  163DMC      H 1679   0.224   3.509   3.390
  163DMC      H 1680   0.161   3.529   3.555
  163DMC      H 1681   0.277   3.647   3.491
  163DMC      H 1682   0.756   3.323   3.526
  163DMC      H 1683   0.680   3.350   3.367
  163DMC      H 1684   0.733   3.490   3.469
  164DMC      C 1685   3.338   0.616   2.109
  164DMC      O 1686   3.471   0.581   2.151
  164DMC      C 1687   3.562   0.588   2.052
  164DMC      O 1688   3.540   0.619   1.936
  164DMC      O 1689   3.683   0.554   2.104
  164DMC      C 1690   3.789   0.556   2.009
  164DMC      H 1691   3.302   0.547   2.032
  164DMC      H 1692   3.272   0.608   2.196
  164DMC      H 1693   3.335   0.719   2.073
  164DMC      H 1694   3.881   0.526   2.060
  164DMC      H 1695   3.770   0.484   1.928
  164DMC      H 1696   3.802   0.657   1.969
  165DMC      C 1697   2.743   1.182   1.070
  165DMC      O 1698   2.743   1.204   1.212
  165DMC      C 1699   2.659   1.123   1.279
  165DMC      O 1700   2.586   1.037   1.230
  165DMC      O 1701   2.668   1.153   1.412
  165DMC      C 1702   2.584   1.074   1.494
  165DMC      H 1703   2.644   1.201   1.028
  165DMC      H 1704   2.814   1.252   1.024
  165DMC      H 1705   2.775   1.080   1.047
  165DMC      H 1706   2.598   1.106   1.598
  165DMC      H 1707   2.478   1.090   1.468
  165DMC      H 1708   2.610   0.969   1.487
  166DMC      C 1709   3.223   3.685   0.328
  166DMC      O 1710   3.180   3.725   0.459
  166DMC      C 1711   3.280   3.775   0.535
  166DMC      O 1712   3.398   3.786   0.502
  166DMC      O 1713   3.228   3.809   0.656
  166DMC      C 1714   3.323   3.863   0.746
  166DMC      H 1715   3.297   3.605   0.334
  166DMC      H 1716   3.136   3.647   0.274
  166DMC      H 1717   3.263   3.770   0.272
  166DMC      H 1718   3.272   3.887   0.840
  166DMC      H 1719   3.401   3.788   0.769
  166DMC      H 1720   3.367   3.954   0.707
  167DMC      C 1721   3.916   3.522   3.938
  167DMC      O 1722   3.915   3.664   3.959
  167DMC      C 1723   3.792   3.720   3.946
  167DMC      O 1724   3.689   3.661   3.918
  167DMC      O 1725   3.804   3.854   3.968
  167DMC      C 1726   3.682   3.925   3.957
  167DMC      H 1727   3.884   3.498   3.837
  167DMC      H 1728   4.019   3.487   3.952
  167DMC      H 1729   3.853   3.472   4.012
  167DMC      H 1730   3.702   4.031   3.976
  167DMC      H 1731   3.641   3.915   3.855
  167DMC      H 1732   3.610   3.889   4.031
  168DMC      C 1733   0.455   2.021   2.214
  168DMC      O 1734   0.453   2.161   2.181
  168DMC      C 1735   0.480   2.241   2.287
  168DMC      O 1736   0.503   2.205   2.401
  168DMC      O 1737   0.476   2.370   2.244
  168DMC      C 1738   0.502   2.466   2.345
  168DMC      H 1739   0.379   1.998   2.288
  168DMC      H 1740   0.433   1.965   2.123
  168DMC      H 1741   0.554   1.991   2.249
  168DMC      H 1742   0.495   2.566   2.301
  168DMC      H 1743   0.426   2.459   2.425
  168DMC      H 1744   0.602   2.452   2.386
  169DMC      C 1745   0.612   2.101   3.891
  169DMC      O 1746   0.602   1.958   3.884
  169DMC      C 1747   0.712   1.899   3.831
  169DMC      O 1748   0.813   1.956   3.792
  169DMC      O 1749   0.692   1.765   3.830
  169DMC      C 1750   0.800   1.690   3.777
  169DMC      H 1751   0.623   2.144   3.791
  169DMC      H 1752   0.519   2.139   3.935
  169DMC      H 1753   0.694   2.131   3.956
  169DMC      H 1754   0.773   1.584   3.779
  169DMC      H 1755   0.818   1.718   3.672
  169DMC      H 1756   0.890   1.705   3.837
  170DMC      C 1757   0.367   3.032   1.855
  170DMC      O 1758   0.436   3.088   1.741
  170DMC      C 1759   0.552   3.025   1.713
  170DMC      O 1760   0.600   2.931   1.774
  170DMC      O 1761   0.607   3.086   1.604
  170DMC      C 1762   0.731   3.030   1.563
  170DMC      H 1763   0.428   3.042   1.945
  170DMC      H 1764   0.275   3.089   1.869
  170DMC      H 1765   0.341   2.928   1.837
  170DMC      H 1766   0.767   3.086   1.476
  170DMC      H 1767   0.806   3.040   1.643
  170DMC      H 1768   0.718   2.925   1.535
  171DMC      C 1769   2.161   0.170   1.903
  171DMC      O 1770   2.131   0.284   1.985
  171DMC      C 1771   2.024   0.355   1.943
  171DMC      O 1772   1.956   0.330   1.844
  171DMC      O 1773   2.005   0.459   2.029
  171DMC      C 1774   1.896   0.542   1.995
  171DMC      H 1775   2.185   0.202   1.801
  171DMC      H 1776   2.248   0.119   1.945
  171DMC      H 1777   2.077   0.100   1.902
  171DMC      H 1778   1.890   0.623   2.069
  171DMC      H 1779   1.911   0.588   1.896
  171DMC      H 1780   1.802   0.486   1.997
  172DMC      C 1781   1.510   1.719   3.569
  172DMC      O 1782   1.639   1.768   3.529
  172DMC      C 1783   1.660   1.898   3.562
  172DMC      O 1784   1.581   1.971   3.620
  172DMC      O 1785   1.785   1.932   3.520
  172DMC      C 1786   1.820   2.067   3.548
  172DMC      H 1787   1.430   1.775   3.520
  172DMC      H 1788   1.503   1.614   3.538
  172DMC      H 1789   1.499   1.724   3.677
  172DMC      H 1790   1.921   2.085   3.509
  172DMC      H 1791   1.751   2.136   3.497
  172DMC      H 1792   1.820   2.084   3.656
  173DMC      C 1793   3.562   1.655   1.198
  173DMC      O 1794   3.502   1.611   1.076
  173DMC      C 1795   3.587   1.605   0.971
  173DMC      O 1796   3.706   1.635   0.974
  173DMC      O 1797   3.519   1.562   0.862
  173DMC      C 1798   3.597   1.553   0.745
  173DMC      H 1799   3.602   1.756   1.187
  173DMC      H 1800   3.486   1.656   1.276
  173DMC      H 1801   3.642   1.586   1.228
  173DMC      H 1802   3.533   1.518   0.663
  173DMC      H 1803   3.638   1.651   0.717
  173DMC      H 1804   3.678   1.480   0.758
  174DMC      C 1805   3.106   0.310   2.237
  174DMC      O 1806   3.007   0.210   2.212
  174DMC      C 1807   2.895   0.258   2.153
  174DMC      O 1808   2.874   0.374   2.123
  174DMC      O 1809   2.809   0.154   2.134
  174DMC      C 1810   2.687   0.191   2.073
  174DMC      H 1811   3.067   0.387   2.305
  174DMC      H 1812   3.192   0.262   2.284
  174DMC      H 1813   3.139   0.356   2.144
  174DMC      H 1814   2.625   0.100   2.063
  174DMC      H 1815   2.632   0.262   2.136
  174DMC      H 1816   2.704   0.232   1.974
  175DMC      C 1817   2.408   3.989   3.838
  175DMC      O 1818   2.537   4.029   3.791
  175DMC      C 1819   2.639   3.983   3.868
  175DMC      O 1820   2.628   3.916   3.969
  175DMC      O 1821   2.756   4.027   3.813
  175DMC      C 1822   2.871   3.986   3.885
  175DMC      H 1823   2.389   4.029   3.938
  175DMC      H 1824   2.333   4.030   3.770
  175DMC      H 1825   2.398   3.880   3.838
  175DMC      H 1826   2.959   4.027   3.834
  175DMC      H 1827   2.870   4.027   3.987
  175DMC      H 1828   2.879   3.877   3.887
  176DMC      C 1829   2.121   2.203   3.978
  176DMC      O 1830   2.080   2.340   3.986
  176DMC      C 1831   1.959   2.364   3.930
  176DMC      O 1832   1.888   2.281   3.874
  176DMC      O 1833   1.931   2.496   3.945
  176DMC      C 1834   1.806   2.535   3.889
  176DMC      H 1835   2.132   2.172   3.873
  176DMC      H 1836   2.219   2.194   4.026
  176DMC      H 1837   2.051   2.138   4.030
  176DMC      H 1838   1.793   2.642   3.905
  176DMC      H 1839   1.805   2.517   3.780
  176DMC      H 1840   1.724   2.482   3.937
  177DMC      C 1841   1.348   2.909   0.261
  177DMC      O 1842   1.287   3.015   0.335
  177DMC      C 1843   1.366   3.067   0.432
  177DMC      O 1844   1.479   3.030   0.459
  177DMC      O 1845   1.297   3.167   0.493
  177DMC      C 1846   1.370   3.230   0.598
  177DMC      H 1847   1.372   2.825   0.328
  177DMC      H 1848   1.277   2.874   0.186
  177DMC      H 1849   1.438   2.943   0.210
  177DMC      H 1850   1.306   3.308   0.642
  177DMC      H 1851   1.394   3.158   0.677
  177DMC      H 1852   1.460   3.277   0.559
  178DMC      C 1853   2.303   2.624   0.911
  178DMC      O 1854   2.444   2.597   0.910
  178DMC      C 1855   2.492   2.557   1.030
  178DMC      O 1856   2.428   2.544   1.133
  178DMC      O 1857   2.626   2.534   1.017
  178DMC      C 1858   2.689   2.491   1.136
  178DMC      H 1859   2.280   2.706   0.981
  178DMC      H 1860   2.274   2.655   0.811
  178DMC      H 1861   2.247   2.535   0.937
  178DMC      H 1862   2.796   2.476   1.115
  178DMC      H 1863   2.680   2.569   1.214
  178DMC      H 1864   2.647   2.397   1.171
  179DMC      C 1865   2.916   0.271   0.965
  179DMC      O 1866   2.924   0.388   1.046
  179DMC      C 1867   2.883   0.368   1.174
  179DMC      O 1868   2.840   0.264   1.220
  179DMC      O 1869   2.895   0.486   1.241
  179DMC      C 1870   2.854   0.479   1.377
  179DMC      H 1871   2.812   0.236   0.957
  179DMC      H 1872   2.952   0.296   0.864
  179DMC      H 1873   2.979   0.191   1.004
  179DMC      H 1874   2.868   0.579   1.421
  179DMC      H 1875   2.748   0.453   1.383
  179DMC      H 1876   2.916   0.408   1.432
  180DMC      C 1877   3.928   3.974   3.734
  180DMC      O 1878   3.861   4.017   3.615
  180DMC      C 1879   3.920   3.977   3.501
  180DMC      O 1880   4.022   3.910   3.493
  180DMC      O 1881   3.847   4.023   3.396
  180DMC      C 1882   3.899   3.987   3.269
  180DMC      H 1883   4.030   4.015   3.738
  180DMC      H 1884   3.873   4.011   3.821
  180DMC      H 1885   3.931   3.865   3.739
  180DMC      H 1886   3.833   4.030   3.192
  180DMC      H 1887   3.999   4.030   3.256
  180DMC      H 1888   3.900   3.879   3.257
  181DMC      C 1889   0.422   2.816   3.515
  181DMC      O 1890   0.394   2.883   3.639
  181DMC      C 1891   0.311   2.989   3.626
  181DMC      O 1892   0.261   3.029   3.522
  181DMC      O 1893   0.292   3.043   3.749
  181DMC      C 1894   0.206   3.156   3.750
  181DMC      H 1895   0.471   2.884   3.445
  181DMC      H 1896   0.489   2.733   3.536
  181DMC      H 1897   0.330   2.776   3.472
  181DMC      H 1898   0.198   3.193   3.853
  181DMC      H 1899   0.248   3.237   3.688
  181DMC      H 1900   0.106   3.129   3.715
  182DMC      C 1901   3.783   1.176   2.791
  182DMC      O 1902   3.800   1.103   2.913
  182DMC      C 1903   3.704   1.128   3.005
  182DMC      O 1904   3.610   1.206   2.992
  182DMC      O 1905   3.730   1.053   3.116
  182DMC      C 1906   3.637   1.071   3.221
  182DMC      H 1907   3.788   1.284   2.810
  182DMC      H 1908   3.864   1.149   2.723
  182DMC      H 1909   3.688   1.150   2.743
  182DMC      H 1910   3.667   1.007   3.305
  182DMC      H 1911   3.637   1.175   3.256
  182DMC      H 1912   3.537   1.041   3.189
  183DMC      C 1913   2.768   0.693   2.970
  183DMC      O 1914   2.892   0.623   2.953
  183DMC      C 1915   2.908   0.521   3.040
  183DMC      O 1916   2.830   0.487   3.127
  183DMC      O 1917   3.028   0.462   3.015
  183DMC      C 1918   3.059   0.353   3.100
  183DMC      H 1919   2.762   0.738   3.070
  183DMC      H 1920   2.763   0.773   2.896
  183DMC      H 1921   2.683   0.626   2.953
  183DMC      H 1922   3.157   0.314   3.071
  183DMC      H 1923   3.064   0.386   3.204
  183DMC      H 1924   2.985   0.274   3.088
  184DMC      C 1925   1.742   0.312   2.628
  184DMC      O 1926   1.627   0.396   2.629
  184DMC      C 1927   1.558   0.392   2.746
  184DMC      O 1928   1.586   0.325   2.844
  184DMC      O 1929   1.451   0.476   2.734
  184DMC      C 1930   1.370   0.481   2.850
  184DMC      H 1931   1.714   0.207   2.642
  184DMC      H 1932   1.791   0.322   2.531
  184DMC      H 1933   1.813   0.342   2.705
  184DMC      H 1934   1.287   0.550   2.831
  184DMC      H 1935   1.327   0.382   2.872
  184DMC      H 1936   1.427   0.518   2.936
  185DMC      C 1937   2.307   2.068   1.269
  185DMC      O 1938   2.317   1.943   1.339
  185DMC      C 1939   2.443   1.895   1.346
  185DMC      O 1940   2.543   1.947   1.298
  185DMC      O 1941   2.440   1.777   1.414
  185DMC      C 1942   2.567   1.715   1.427
  185DMC      H 1943   2.339   2.057   1.165
  185DMC      H 1944   2.202   2.099   1.270
  185DMC      H 1945   2.365   2.145   1.320
  185DMC      H 1946   2.554   1.621   1.483
  185DMC      H 1947   2.609   1.691   1.329
  185DMC      H 1948   2.635   1.779   1.483
  186DMC      C 1949   3.391   3.231   3.862
  186DMC      O 1950   3.513   3.162   3.829
  186DMC      C 1951   3.621   3.208   3.897
  186DMC      O 1952   3.621   3.299   3.979
  186DMC      O 1953   3.729   3.135   3.858
  186DMC      C 1954   3.849   3.173   3.922
  186DMC      H 1955   3.399   3.337   3.837
  186DMC      H 1956   3.310   3.188   3.803
  186DMC      H 1957   3.367   3.219   3.968
  186DMC      H 1958   3.930   3.109   3.884
  186DMC      H 1959   3.875   3.277   3.898
  186DMC      H 1960   3.842   3.158   4.030
  187DMC      C 1961   1.184   2.171   1.293
  187DMC      O 1962   1.191   2.037   1.240
  187DMC      C 1963   1.189   1.941   1.335
  187DMC      O 1964   1.182   1.960   1.456
  187DMC      O 1965   1.196   1.820   1.274
  187DMC      C 1966   1.194   1.710   1.363
  187DMC      H 1967   1.269   2.191   1.358
  187DMC      H 1968   1.186   2.241   1.209
  187DMC      H 1969   1.090   2.185   1.347
  187DMC      H 1970   1.202   1.618   1.304
  187DMC      H 1971   1.281   1.714   1.430
  187DMC      H 1972   1.101   1.708   1.420
  188DMC      C 1973   3.077   2.389   3.964
  188DMC      O 1974   3.160   2.284   4.015
  188DMC      C 1975   3.272   2.264   3.942
  188DMC      O 1976   3.304   2.324   3.841
  188DMC      O 1977   3.343   2.163   4.000
  188DMC      C 1978   3.463   2.131   3.932
  188DMC      H 1979   3.041   2.365   3.863
  188DMC      H 1980   2.990   2.398   4.030
  188DMC      H 1981   3.130   2.484   3.964
  188DMC      H 1982   3.512   2.049   3.987
  188DMC      H 1983   3.442   2.096   3.830
  188DMC      H 1984   3.531   2.217   3.931
  189DMC      C 1985   1.975   0.292   0.189
  189DMC      O 1986   2.037   0.376   0.288
  189DMC      C 1987   2.145   0.444   0.242
  189DMC      O 1988   2.190   0.438   0.128
  189DMC      O 1989   2.194   0.519   0.343
  189DMC      C 1990   2.308   0.595   0.308
  189DMC      H 1991   2.045   0.216   0.153
  189DMC      H 1992   1.890   0.242   0.235
  189DMC      H 1993   1.938   0.352   0.105
  189DMC      H 1994   2.341   0.652   0.397
  189DMC      H 1995   2.391   0.530   0.278
  189DMC      H 1996   2.284   0.666   0.229
  190DMC      C 1997   2.061   0.646   3.491
  190DMC      O 1998   2.071   0.627   3.349
  190DMC      C 1999   2.177   0.551   3.312
  190DMC      O 2000   2.260   0.502   3.386
  190DMC      O 2001   2.175   0.540   3.176
  190DMC      C 2002   2.282   0.462   3.124
  190DMC      H 2003   2.149   0.699   3.529
  190DMC      H 2004   1.973   0.708   3.511
  190DMC      H 2005   2.049   0.551   3.542
  190DMC      H 2006   2.271   0.460   3.014
  190DMC      H 2007   2.378   0.509   3.148
  190DMC      H 2008   2.277   0.360   3.162
  191DMC      C 2009   0.761   0.602   3.931
  191DMC      O 2010   0.865   0.699   3.940
  191DMC      C 2011   0.895   0.759   3.823
  191DMC      O 2012   0.841   0.737   3.715
  191DMC      O 2013   0.994   0.849   3.845
  191DMC      C 2014   1.035   0.919   3.728
  191DMC      H 2015   0.789   0.521   3.862
  191DMC      H 2016   0.744   0.559   4.030
  191DMC      H 2017   0.668   0.648   3.898
  191DMC      H 2018   1.116   0.988   3.756
  191DMC      H 2019   1.074   0.850   3.653
  191DMC      H 2020   0.952   0.978   3.688
  192DMC      C 2021   0.206   2.300   0.256
  192DMC      O 2022   0.319   2.386   0.236
  192DMC      C 2023   0.436   2.321   0.223
  192DMC      O 2024   0.452   2.199   0.227
  192DMC      O 2025   0.535   2.413   0.204
  192DMC      C 2026   0.664   2.356   0.189
  192DMC      H 2027   0.218   2.242   0.348
  192DMC      H 2028   0.117   2.362   0.265
  192DMC      H 2029   0.193   2.233   0.170
  192DMC      H 2030   0.736   2.438   0.176
  192DMC      H 2031   0.693   2.301   0.280
  192DMC      H 2032   0.668   2.292   0.101
  193DMC      C 2033   3.047   3.723   2.585
  193DMC      O 2034   3.127   3.839   2.558
  193DMC      C 2035   3.259   3.821   2.581
  193DMC      O 2036   3.312   3.718   2.621
  193DMC      O 2037   3.323   3.937   2.552
  193DMC      C 2038   3.464   3.932   2.572
  193DMC      H 2039   3.055   3.694   2.690
  193DMC      H 2040   2.943   3.747   2.564
  193DMC      H 2041   3.077   3.640   2.521
  193DMC      H 2042   3.506   4.030   2.546
  193DMC      H 2043   3.487   3.911   2.677
  193DMC      H 2044   3.509   3.857   2.507
  194DMC      C 2045   3.204   3.505   1.357
  194DMC      O 2046   3.232   3.374   1.306
  194DMC      C 2047   3.187   3.274   1.385
  194DMC      O 2048   3.127   3.287   1.491
  194DMC      O 2049   3.219   3.156   1.326
  194DMC      C 2050   3.177   3.042   1.399
  194DMC      H 2051   3.252   3.520   1.455
  194DMC      H 2052   3.244   3.579   1.287
  194DMC      H 2053   3.096   3.521   1.365
  194DMC      H 2054   3.209   2.952   1.344
  194DMC      H 2055   3.225   3.039   1.498
  194DMC      H 2056   3.068   3.040   1.408
  195DMC      C 2057   1.611   2.767   2.458
  195DMC      O 2058   1.700   2.655   2.466
  195DMC      C 2059   1.828   2.686   2.433
  195DMC      O 2060   1.869   2.796   2.399
  195DMC      O 2061   1.903   2.573   2.445
  195DMC      C 2062   2.040   2.591   2.413
  195DMC      H 2063   1.606   2.806   2.356
  195DMC      H 2064   1.511   2.732   2.486
  195DMC      H 2065   1.641   2.845   2.528
  195DMC      H 2066   2.091   2.495   2.424
  195DMC      H 2067   2.051   2.623   2.308
  195DMC      H 2068   2.086   2.663   2.481
  196DMC      C 2069   1.497   3.122   1.440
  196DMC      O 2070   1.615   3.063   1.497
  196DMC      C 2071   1.722   3.065   1.415
  196DMC      O 2072   1.725   3.111   1.302
  196DMC      O 2073   1.827   3.007   1.480
  196DMC      C 2074   1.946   3.003   1.404
  196DMC      H 2075   1.466   3.068   1.350
  196DMC      H 2076   1.417   3.116   1.514
  196DMC      H 2077   1.514   3.227   1.417
  196DMC      H 2078   2.024   2.954   1.464
  196DMC      H 2079   1.932   2.943   1.313
  196DMC      H 2080   1.980   3.104   1.379
  197DMC      C 2081   1.663   0.868   3.601
  197DMC      O 2082   1.667   0.879   3.458
  197DMC      C 2083   1.550   0.848   3.398
  197DMC      O 2084   1.447   0.814   3.454
  197DMC      O 2085   1.567   0.862   3.263
  197DMC      C 2086   1.451   0.833   3.188
  197DMC      H 2087   1.640   0.766   3.632
  197DMC      H 2088   1.761   0.895   3.640
  197DMC      H 2089   1.590   0.938   3.642
  197DMC      H 2090   1.475   0.846   3.081
  197DMC      H 2091   1.421   0.728   3.203
  197DMC      H 2092   1.370   0.901   3.214
  198DMC      C 2093   0.225   0.587   0.399
  198DMC      O 2094   0.148   0.681   0.476
  198DMC      C 2095   0.206   0.715   0.594
  198DMC      O 2096   0.313   0.673   0.636
  198DMC      O 2097   0.124   0.803   0.657
  198DMC      C 2098   0.174   0.847   0.783
  198DMC      H 2099   0.238   0.493   0.454
  198DMC      H 2100   0.171   0.566   0.307
  198DMC      H 2101   0.322   0.630   0.373
  198DMC      H 2102   0.101   0.917   0.825
  198DMC      H 2103   0.184   0.762   0.852
  198DMC      H 2104   0.269   0.899   0.771
  199DMC      C 2105   0.160   1.732   1.514
  199DMC      O 2106   0.143   1.865   1.565
  199DMC      C 2107   0.183   1.880   1.694
  199DMC      O 2108   0.228   1.792   1.765
  199DMC      O 2109   0.163   2.009   1.729
  199DMC      C 2110   0.200   2.038   1.863
  199DMC      H 2111   0.099   1.661   1.572
  199DMC      H 2112   0.126   1.730   1.410
  199DMC      H 2113   0.265   1.702   1.517
  199DMC      H 2114   0.180   2.144   1.883
  199DMC      H 2115   0.140   1.979   1.934
  199DMC      H 2116   0.307   2.020   1.878
  200DMC      C 2117   3.842   2.641   3.526
  200DMC      O 2118   3.744   2.647   3.630
  200DMC      C 2119   3.635   2.571   3.607
  200DMC      O 2120   3.615   2.502   3.508
  200DMC      O 2121   3.550   2.585   3.712
  200DMC      C 2122   3.430   2.509   3.699
  200DMC      H 2123   3.801   2.678   3.431
  200DMC      H 2124   3.926   2.706   3.554
  200DMC      H 2125   3.879   2.539   3.514
  200DMC      H 2126   3.368   2.528   3.788
  200DMC      H 2127   3.373   2.542   3.611
  200DMC      H 2128   3.452   2.403   3.694
  201DMC      C 2129   3.814   2.710   2.851
  201DMC      O 2130   3.755   2.824   2.915
  201DMC      C 2131   3.782   2.942   2.853
  201DMC      O 2132   3.849   2.956   2.752
  201DMC      O 2133   3.721   3.041   2.922
  201DMC      C 2134   3.741   3.170   2.867
  201DMC      H 2135   3.923   2.719   2.849
  201DMC      H 2136   3.786   2.621   2.908
  201DMC      H 2137   3.775   2.699   2.749
  201DMC      H 2138   3.689   3.243   2.931
  201DMC      H 2139   3.848   3.196   2.867
  201DMC      H 2140   3.700   3.176   2.766
  202DMC      C 2141   2.404   1.256   3.877
  202DMC      O 2142   2.416   1.399   3.867
  202DMC      C 2143   2.298   1.463   3.856
  202DMC      O 2144   2.188   1.410   3.854
  202DMC      O 2145   2.322   1.596   3.848
  202DMC      C 2146   2.205   1.675   3.835
  202DMC      H 2147   2.357   1.215   3.788
  202DMC      H 2148   2.505   1.214   3.886
  202DMC      H 2149   2.348   1.228   3.967
  202DMC      H 2150   2.235   1.780   3.828
  202DMC      H 2151   2.151   1.649   3.743
  202DMC      H 2152   2.141   1.663   3.923
  203DMC      C 2153   1.882   0.375   1.581
  203DMC      O 2154   1.811   0.386   1.458
  203DMC      C 2155   1.889   0.423   1.353
  203DMC      O 2156   2.009   0.445   1.358
  203DMC      O 2157   1.811   0.430   1.242
  203DMC      C 2158   1.881   0.468   1.125
  203DMC      H 2159   1.927   0.471   1.610
  203DMC      H 2160   1.811   0.345   1.659
  203DMC      H 2161   1.959   0.298   1.574
  203DMC      H 2162   1.809   0.472   1.042
  203DMC      H 2163   1.925   0.568   1.137
  203DMC      H 2164   1.958   0.394   1.101
  204DMC      C 2165   2.665   2.194   2.591
  204DMC      O 2166   2.588   2.095   2.659
  204DMC      C 2167   2.586   1.975   2.596
  204DMC      O 2168   2.642   1.948   2.491
  204DMC      O 2169   2.510   1.889   2.670
  204DMC      C 2170   2.500   1.759   2.615
  204DMC      H 2171   2.624   2.214   2.491
  204DMC      H 2172   2.661   2.287   2.649
  204DMC      H 2173   2.770   2.163   2.583
  204DMC      H 2174   2.437   1.699   2.681
  204DMC      H 2175   2.452   1.763   2.516
  204DMC      H 2176   2.598   1.712   2.608
  205DMC      C 2177   1.551   2.698   0.678
  205DMC      O 2178   1.681   2.637   0.680
  205DMC      C 2179   1.678   2.502   0.677
  205DMC      O 2180   1.577   2.432   0.673
  205DMC      O 2181   1.806   2.457   0.678
  205DMC      C 2182   1.817   2.315   0.676
  205DMC      H 2183   1.493   2.668   0.766
  205DMC      H 2184   1.564   2.806   0.680
  205DMC      H 2185   1.497   2.672   0.586
  205DMC      H 2186   1.923   2.289   0.679
  205DMC      H 2187   1.769   2.271   0.765
  205DMC      H 2188   1.773   2.275   0.585
  206DMC      C 2189   3.533   2.101   0.583
  206DMC      O 2190   3.586   2.143   0.456
  206DMC      C 2191   3.721   2.148   0.452
  206DMC      O 2192   3.797   2.122   0.545
  206DMC      O 2193   3.758   2.188   0.328
  206DMC      C 2194   3.899   2.198   0.311
  206DMC      H 2195   3.562   2.171   0.662
  206DMC      H 2196   3.424   2.099   0.575
  206DMC      H 2197   3.567   2.000   0.607
  206DMC      H 2198   3.919   2.232   0.208
  206DMC      H 2199   3.941   2.273   0.379
  206DMC      H 2200   3.947   2.101   0.325
  207DMC      C 2201   0.596   0.801   2.591
  207DMC      O 2202   0.594   0.746   2.458
  207DMC      C 2203   0.483   0.777   2.388
  207DMC      O 2204   0.389   0.844   2.428
  207DMC      O 2205   0.493   0.721   2.265
  207DMC      C 2206   0.382   0.746   2.180
  207DMC      H 2207   0.512   0.762   2.650
  207DMC      H 2208   0.689   0.771   2.639
  207DMC      H 2209   0.593   0.910   2.587
  207DMC      H 2210   0.399   0.696   2.084
  207DMC      H 2211   0.290   0.704   2.224
  207DMC      H 2212   0.370   0.853   2.162
  208DMC      C 2213   2.328   2.721   3.333
  208DMC      O 2214   2.307   2.747   3.194
  208DMC      C 2215   2.182   2.789   3.164
  208DMC      O 2216   2.091   2.804   3.244
  208DMC      O 2217   2.175   2.811   3.030
  208DMC      C 2218   2.048   2.855   2.986
  208DMC      H 2219   2.261   2.641   3.368
  208DMC      H 2220   2.431   2.688   3.347
  208DMC      H 2221   2.312   2.811   3.392
  208DMC      H 2222   2.052   2.869   2.877
  208DMC      H 2223   1.971   2.779   3.007
  208DMC      H 2224   2.022   2.950   3.032
  209DMC      C 2225   3.423   2.639   0.471
  209DMC      O 2226   3.468   2.601   0.602
  209DMC      C 2227   3.581   2.527   0.601
  209DMC      O 2228   3.643   2.492   0.501
  209DMC      O 2229   3.613   2.497   0.729
  209DMC      C 2230   3.731   2.419   0.742
  209DMC      H 2231   3.399   2.551   0.411
  209DMC      H 2232   3.331   2.699   0.482
  209DMC      H 2233   3.498   2.701   0.421
  209DMC      H 2234   3.748   2.400   0.849
  209DMC      H 2235   3.719   2.322   0.692
  209DMC      H 2236   3.817   2.473   0.702
  210DMC      C 2237   1.922   3.100   1.764
  210DMC      O 2238   1.790   3.157   1.767
  210DMC      C 2239   1.751   3.198   1.890
  210DMC      O 2240   1.817   3.190   1.993
  210DMC      O 2241   1.626   3.249   1.880
  210DMC      C 2242   1.573   3.296   2.003
  210DMC      H 2243   1.927   3.012   1.828
  210DMC      H 2244   1.944   3.070   1.661
  210DMC      H 2245   1.996   3.174   1.795
  210DMC      H 2246   1.472   3.335   1.984
  210DMC      H 2247   1.565   3.214   2.075
  210DMC      H 2248   1.634   3.377   2.042
  211DMC      C 2249   1.992   3.681   0.915
  211DMC      O 2250   1.963   3.711   0.778
  211DMC      C 2251   1.872   3.811   0.762
  211DMC      O 2252   1.817   3.872   0.852
  211DMC      O 2253   1.854   3.831   0.629
  211DMC      C 2254   1.760   3.933   0.598
  211DMC      H 2255   1.902   3.647   0.966
  211DMC      H 2256   2.066   3.600   0.917
  211DMC      H 2257   2.034   3.768   0.965
  211DMC      H 2258   1.752   3.940   0.489
  211DMC      H 2259   1.661   3.907   0.638
  211DMC      H 2260   1.794   4.029   0.637
  212DMC      C 2261   0.554   2.864   0.172
  212DMC      O 2262   0.524   2.989   0.235
  212DMC      C 2263   0.616   3.028   0.326
  212DMC      O 2264   0.716   2.966   0.357
  212DMC      O 2265   0.576   3.147   0.378
  212DMC      C 2266   0.665   3.199   0.476
  212DMC      H 2267   0.557   2.783   0.246
  212DMC      H 2268   0.475   2.842   0.100
  212DMC      H 2269   0.649   2.870   0.118
  212DMC      H 2270   0.624   3.294   0.512
  212DMC      H 2271   0.671   3.130   0.562
  212DMC      H 2272   0.763   3.217   0.433
  213DMC      C 2273   0.545   0.753   1.267
  213DMC      O 2274   0.465   0.669   1.183
  213DMC      C 2275   0.357   0.617   1.246
  213DMC      O 2276   0.326   0.635   1.363
  213DMC      O 2277   0.289   0.540   1.156
  213DMC      C 2278   0.173   0.479   1.210
  213DMC      H 2279   0.585   0.696   1.352
  213DMC      H 2280   0.630   0.790   1.208
  213DMC      H 2281   0.488   0.839   1.303
  213DMC      H 2282   0.126   0.419   1.131
  213DMC      H 2283   0.199   0.411   1.292
  213DMC      H 2284   0.101   0.554   1.243
  214DMC      C 2285   0.180   2.119   2.651
  214DMC      O 2286   0.272   2.027   2.593
  214DMC      C 2287   0.217   1.944   2.501
  214DMC      O 2288   0.100   1.944   2.467
  214DMC      O 2289   0.315   1.863   2.453
  214DMC      C 2290   0.269   1.770   2.355
  214DMC      H 2291   0.100   2.066   2.704
  214DMC      H 2292   0.233   2.181   2.724
  214DMC      H 2293   0.137   2.185   2.575
  214DMC      H 2294   0.355   1.709   2.324
  214DMC      H 2295   0.193   1.703   2.398
  214DMC      H 2296   0.230   1.823   2.268
  215DMC      C 2297   1.331   1.905   3.030
  215DMC      O 2298   1.398   1.995   2.941
  215DMC      C 2299   1.333   2.014   2.824
  215DMC      O 2300   1.227   1.961   2.791
  215DMC      O 2301   1.405   2.101   2.748
  215DMC      C 2302   1.347   2.128   2.622
  215DMC      H 2303   1.322   1.805   2.986
  215DMC      H 2304   1.391   1.897   3.121
  215DMC      H 2305   1.233   1.943   3.057
  215DMC      H 2306   1.413   2.199   2.569
  215DMC      H 2307   1.340   2.037   2.562
  215DMC      H 2308   1.249   2.175   2.634
  216DMC      C 2309   0.451   0.980   3.113
  216DMC      O 2310   0.454   1.120   3.081
  216DMC      C 2311   0.339   1.185   3.110
  216DMC      O 2312   0.238   1.134   3.157
  216DMC      O 2313   0.354   1.316   3.076
  216DMC      C 2314   0.239   1.395   3.101
  216DMC      H 2315   0.374   0.929   3.054
  216DMC      H 2316   0.549   0.937   3.087
  216DMC      H 2317   0.435   0.965   3.220
  216DMC      H 2318   0.261   1.498   3.070
  216DMC      H 2319   0.154   1.359   3.041
  216DMC      H 2320   0.215   1.395   3.207
  217DMC      C 2321   3.557   0.652   0.789
  217DMC      O 2322   3.492   0.533   0.740
  217DMC      C 2323   3.357   0.540   0.743
  217DMC      O 2324   3.290   0.634   0.783
  217DMC      O 2325   3.308   0.422   0.694
  217DMC      C 2326   3.167   0.416   0.693
  217DMC      H 2327   3.530   0.670   0.894
  217DMC      H 2328   3.665   0.638   0.782
  217DMC      H 2329   3.530   0.738   0.728
  217DMC      H 2330   3.137   0.318   0.653
  217DMC      H 2331   3.126   0.424   0.795
  217DMC      H 2332   3.125   0.493   0.628
  218DMC      C 2333   3.185   2.506   2.912
  218DMC      O 2334   3.080   2.589   2.963
  218DMC      C 2335   2.968   2.587   2.887
  218DMC      O 2336   2.952   2.523   2.784
  218DMC      O 2337   2.876   2.668   2.945
  218DMC      C 2338   2.753   2.675   2.875
  218DMC      H 2339   3.217   2.539   2.813
  218DMC      H 2340   3.271   2.514   2.980
  218DMC      H 2341   3.154   2.401   2.909
  218DMC      H 2342   2.686   2.744   2.929
  218DMC      H 2343   2.769   2.717   2.774
  218DMC      H 2344   2.705   2.577   2.870
  219DMC      C 2345   2.154   1.566   2.855
  219DMC      O 2346   2.138   1.699   2.805
  219DMC      C 2347   2.060   1.778   2.882
  219DMC      O 2348   2.004   1.744   2.985
  219DMC      O 2349   2.053   1.901   2.825
  219DMC      C 2350   1.973   1.994   2.896
  219DMC      H 2351   2.057   1.515   2.860
  219DMC      H 2352   2.219   1.511   2.786
  219DMC      H 2353   2.201   1.567   2.953
  219DMC      H 2354   1.973   2.089   2.842
  219DMC      H 2355   1.869   1.958   2.902
  219DMC      H 2356   2.013   2.010   2.996
  220DMC      C 2357   0.396   1.486   1.145
  220DMC      O 2358   0.512   1.410   1.181
  220DMC      C 2359   0.484   1.281   1.214
  220DMC      O 2360   0.373   1.230   1.217
  220DMC      O 2361   0.601   1.220   1.246
  220DMC      C 2362   0.586   1.084   1.283
  220DMC      H 2363   0.326   1.492   1.229
  220DMC      H 2364   0.429   1.588   1.120
  220DMC      H 2365   0.347   1.443   1.058
  220DMC      H 2366   0.685   1.043   1.307
  220DMC      H 2367   0.523   1.075   1.373
  220DMC      H 2368   0.543   1.026   1.201
  221DMC      C 2369   2.183   1.235   1.513
  221DMC      O 2370   2.066   1.157   1.545
  221DMC      C 2371   1.954   1.200   1.483
  221DMC      O 2372   1.945   1.296   1.408
  221DMC      O 2373   1.851   1.119   1.521
  221DMC      C 2374   1.727   1.154   1.463
  221DMC      H 2375   2.169   1.339   1.545
  221DMC      H 2376   2.268   1.193   1.567
  221DMC      H 2377   2.204   1.230   1.407
  221DMC      H 2378   1.651   1.083   1.500
  221DMC      H 2379   1.696   1.255   1.494
  221DMC      H 2380   1.731   1.146   1.354
  222DMC      C 2381   2.035   2.683   3.689
  222DMC      O 2382   2.136   2.612   3.763
  222DMC      C 2383   2.254   2.603   3.698
  222DMC      O 2384   2.279   2.648   3.587
  222DMC      O 2385   2.341   2.535   3.777
  222DMC      C 2386   2.470   2.518   3.720
  222DMC      H 2387   2.013   2.632   3.595
  222DMC      H 2388   1.944   2.685   3.750
  222DMC      H 2389   2.066   2.786   3.671
  222DMC      H 2390   2.532   2.462   3.791
  222DMC      H 2391   2.464   2.460   3.627
  222DMC      H 2392   2.517   2.615   3.702
  223DMC      C 2393   1.355   2.437   0.805
  223DMC      O 2394   1.357   2.297   0.773
  223DMC      C 2395   1.340   2.216   0.880
  223DMC      O 2396   1.325   2.253   0.996
  223DMC      O 2397   1.343   2.087   0.837
  223DMC      C 2398   1.327   1.992   0.940
  223DMC      H 2399   1.437   2.462   0.874
  223DMC      H 2400   1.369   2.494   0.712
  223DMC      H 2401   1.259   2.465   0.848
  223DMC      H 2402   1.331   1.892   0.895
  223DMC      H 2403   1.408   2.000   1.013
  223DMC      H 2404   1.230   2.004   0.988
  224DMC      C 2405   3.356   2.094   1.612
  224DMC      O 2406   3.246   2.158   1.546
  224DMC      C 2407   3.183   2.250   1.623
  224DMC      O 2408   3.212   2.279   1.739
  224DMC      O 2409   3.082   2.304   1.551
  224DMC      C 2410   3.007   2.402   1.621
  224DMC      H 2411   3.322   2.039   1.700
  224DMC      H 2412   3.400   2.022   1.542
  224DMC      H 2413   3.433   2.167   1.639
  224DMC      H 2414   2.928   2.439   1.554
  224DMC      H 2415   2.959   2.358   1.710
  224DMC      H 2416   3.071   2.486   1.649
  225DMC      C 2417   1.124   2.624   3.112
  225DMC      O 2418   1.195   2.571   3.000
  225DMC      C 2419   1.318   2.623   2.984
  225DMC      O 2420   1.370   2.709   3.054
  225DMC      O 2421   1.375   2.565   2.875
  225DMC      C 2422   1.506   2.612   2.847
  225DMC      H 2423   1.108   2.732   3.100
  225DMC      H 2424   1.026   2.576   3.117
  225DMC      H 2425   1.177   2.603   3.205
  225DMC      H 2426   1.543   2.559   2.757
  225DMC      H 2427   1.504   2.720   2.824
  225DMC      H 2428   1.574   2.591   2.930
  226DMC      C 2429   0.762   2.122   0.503
  226DMC      O 2430   0.831   2.063   0.613
  226DMC      C 2431   0.946   2.001   0.579
  226DMC      O 2432   0.992   1.993   0.466
  226DMC      O 2433   1.002   1.949   0.691
  226DMC      C 2434   1.125   1.881   0.669
  226DMC      H 2435   0.734   2.046   0.429
  226DMC      H 2436   0.671   2.170   0.541
  226DMC      H 2437   0.824   2.199   0.456
  226DMC      H 2438   1.161   1.843   0.765
  226DMC      H 2439   1.109   1.795   0.602
  226DMC      H 2440   1.199   1.949   0.628
  227DMC      C 2441   3.709   3.347   2.133
  227DMC      O 2442   3.576   3.329   2.080
  227DMC      C 2443   3.479   3.373   2.163
  227DMC      O 2444   3.495   3.422   2.273
  227DMC      O 2445   3.359   3.351   2.102
  227DMC      C 2446   3.247   3.393   2.179
  227DMC      H 2447   3.721   3.290   2.225
  227DMC      H 2448   3.780   3.309   2.059
  227DMC      H 2449   3.730   3.453   2.150
  227DMC      H 2450   3.156   3.370   2.122
  227DMC      H 2451   3.243   3.336   2.273
  227DMC      H 2452   3.251   3.500   2.198
  228DMC      C 2453   3.322   3.260   2.523
  228DMC      O 2454   3.428   3.338   2.465
  228DMC      C 2455   3.483   3.427   2.551
  228DMC      O 2456   3.450   3.444   2.667
  228DMC      O 2457   3.581   3.493   2.485
  228DMC      C 2458   3.648   3.591   2.564
  228DMC      H 2459   3.240   3.325   2.555
  228DMC      H 2460   3.284   3.191   2.447
  228DMC      H 2461   3.359   3.201   2.607
  228DMC      H 2462   3.724   3.639   2.502
  228DMC      H 2463   3.577   3.668   2.597
  228DMC      H 2464   3.697   3.544   2.649
  229DMC      C 2465   1.793   1.178   0.751
  229DMC      O 2466   1.880   1.263   0.827
  229DMC      C 2467   1.830   1.297   0.949
  229DMC      O 2468   1.722   1.262   0.994
  229DMC      O 2469   1.921   1.377   1.011
  229DMC      C 2470   1.880   1.420   1.140
  229DMC      H 2471   1.698   1.228   0.731
  229DMC      H 2472   1.842   1.156   0.656
  229DMC      H 2473   1.777   1.084   0.803
  229DMC      H 2474   1.959   1.484   1.181
  229DMC      H 2475   1.788   1.480   1.133
  229DMC      H 2476   1.866   1.335   1.206
  230DMC      C 2477   1.701   1.966   0.464
  230DMC      O 2478   1.752   1.862   0.549
  230DMC      C 2479   1.698   1.862   0.673
  230DMC      O 2480   1.615   1.941   0.715
  230DMC      O 2481   1.754   1.759   0.743
  230DMC      C 2482   1.706   1.748   0.876
  230DMC      H 2483   1.724   2.064   0.506
  230DMC      H 2484   1.750   1.957   0.366
  230DMC      H 2485   1.593   1.954   0.450
  230DMC      H 2486   1.757   1.664   0.924
  230DMC      H 2487   1.730   1.839   0.933
  230DMC      H 2488   1.599   1.729   0.877
  231DMC      C 2489   3.509   1.509   2.998
  231DMC      O 2490   3.644   1.493   2.953
  231DMC      C 2491   3.720   1.416   3.034
  231DMC      O 2492   3.682   1.362   3.138
  231DMC      O 2493   3.845   1.409   2.982
  231DMC      C 2494   3.935   1.330   3.058
  231DMC      H 2495   3.505   1.557   3.096
  231DMC      H 2496   3.456   1.572   2.926
  231DMC      H 2497   3.458   1.412   3.002
  231DMC      H 2498   4.032   1.331   3.008
  231DMC      H 2499   3.948   1.374   3.158
  231DMC      H 2500   3.900   1.227   3.064
  232DMC      C 2501   1.013   2.438   1.479
  232DMC      O 2502   0.981   2.453   1.618
  232DMC      C 2503   1.077   2.518   1.689
  232DMC      O 2504   1.183   2.559   1.645
  232DMC      O 2505   1.035   2.527   1.818
  232DMC      C 2506   1.128   2.592   1.904
  232DMC      H 2507   1.104   2.377   1.467
  232DMC      H 2508   0.930   2.385   1.431
  232DMC      H 2509   1.025   2.535   1.431
  232DMC      H 2510   1.085   2.594   2.005
  232DMC      H 2511   1.222   2.536   1.908
  232DMC      H 2512   1.144   2.695   1.871
  233DMC      C 2513   3.003   1.156   0.494
  233DMC      O 2514   3.087   1.213   0.594
  233DMC      C 2515   3.024   1.234   0.713
  233DMC      O 2516   2.907   1.209   0.737
  233DMC      O 2517   3.114   1.288   0.799
  233DMC      C 2518   3.060   1.315   0.928
  233DMC      H 2519   2.918   1.222   0.471
  233DMC      H 2520   3.062   1.143   0.402
  233DMC      H 2521   2.966   1.058   0.525
  233DMC      H 2522   3.140   1.358   0.990
  233DMC      H 2523   2.979   1.388   0.921
  233DMC      H 2524   3.026   1.222   0.975
  234DMC      C 2525   0.469   1.117   2.273
  234DMC      O 2526   0.558   1.209   2.338
  234DMC      C 2527   0.656   1.150   2.409
  234DMC      O 2528   0.673   1.029   2.421
  234DMC      O 2529   0.733   1.247   2.464
  234DMC      C 2530   0.841   1.198   2.543
  234DMC      H 2531   0.418   1.054   2.347
  234DMC      H 2532   0.394   1.174   2.218
  234DMC      H 2533   0.524   1.055   2.201
  234DMC      H 2534   0.896   1.283   2.584
  234DMC      H 2535   0.803   1.138   2.627
  234DMC      H 2536   0.909   1.139   2.481
  235DMC      C 2537   3.099   2.883   1.115
  235DMC      O 2538   3.239   2.913   1.129
  235DMC      C 2539   3.276   3.028   1.068
  235DMC      O 2540   3.203   3.103   1.005
  235DMC      O 2541   3.409   3.046   1.089
  235DMC      C 2542   3.462   3.163   1.030
  235DMC      H 2543   3.073   2.870   1.009
  235DMC      H 2544   3.079   2.789   1.167
  235DMC      H 2545   3.038   2.961   1.160
  235DMC      H 2546   3.569   3.168   1.052
  235DMC      H 2547   3.450   3.160   0.921
  235DMC      H 2548   3.414   3.252   1.071
  236DMC      C 2549   3.178   1.624   0.928
  236DMC      O 2550   3.112   1.573   0.812
  236DMC      C 2551   3.163   1.620   0.695
  236DMC      O 2552   3.255   1.699   0.684
  236DMC      O 2553   3.093   1.563   0.593
  236DMC      C 2554   3.136   1.605   0.465
  236DMC      H 2555   3.168   1.733   0.933
  236DMC      H 2556   3.131   1.581   1.017
  236DMC      H 2557   3.284   1.596   0.928
  236DMC      H 2558   3.073   1.555   0.390
  236DMC      H 2559   3.123   1.713   0.453
  236DMC      H 2560   3.240   1.576   0.448
  237DMC      C 2561   3.477   2.851   1.321
  237DMC      O 2562   3.382   2.762   1.261
  237DMC      C 2563   3.291   2.713   1.348
  237DMC      O 2564   3.285   2.738   1.467
  237DMC      O 2565   3.206   2.631   1.279
  237DMC      C 2566   3.105   2.573   1.360
  237DMC      H 2567   3.535   2.799   1.399
  237DMC      H 2568   3.547   2.884   1.243
  237DMC      H 2569   3.427   2.938   1.363
  237DMC      H 2570   3.043   2.509   1.296
  237DMC      H 2571   3.149   2.510   1.438
  237DMC      H 2572   3.041   2.650   1.403
  238DMC      C 2573   2.171   3.320   1.635
  238DMC      O 2574   2.032   3.343   1.658
  238DMC      C 2575   2.007   3.417   1.769
  238DMC      O 2576   2.090   3.462   1.846
  238DMC      O 2577   1.872   3.432   1.780
  238DMC      C 2578   1.832   3.507   1.893
  238DMC      H 2579   2.216   3.265   1.718
  238DMC      H 2580   2.182   3.260   1.544
  238DMC      H 2581   2.224   3.415   1.620
  238DMC      H 2582   1.722   3.513   1.893
  238DMC      H 2583   1.863   3.458   1.986
  238DMC      H 2584   1.871   3.609   1.887
  239EMC      C 2585   2.603   3.123   1.282
  239EMC      C 2586   2.620   2.978   1.244
  239EMC      O 2587   2.510   2.933   1.164
  239EMC      C 2588   2.402   2.889   1.234
  239EMC      O 2589   2.392   2.883   1.355
  239EMC      O 2590   2.308   2.851   1.145
  239EMC      C 2591   2.188   2.801   1.204
  239EMC      H 2592   2.591   3.185   1.192
  239EMC      H 2593   2.690   3.159   1.338
  239EMC      H 2594   2.514   3.138   1.343
  239EMC      H 2595   2.711   2.966   1.183
  239EMC      H 2596   2.634   2.915   1.333
  239EMC      H 2597   2.209   2.711   1.265
  239EMC      H 2598   2.119   2.773   1.124
  239EMC      H 2599   2.141   2.878   1.265
  240EMC      C 2600   0.600   0.839   0.847
  240EMC      C 2601   0.584   0.867   0.699
  240EMC      O 2602   0.617   1.003   0.670
  240EMC      C 2603   0.515   1.092   0.684
  240EMC      O 2604   0.402   1.066   0.717
  240EMC      O 2605   0.563   1.215   0.652
  240EMC      C 2606   0.466   1.319   0.662
  240EMC      H 2607   0.702   0.864   0.880
  240EMC      H 2608   0.580   0.734   0.869
  240EMC      H 2609   0.531   0.900   0.906
  240EMC      H 2610   0.654   0.804   0.642
  240EMC      H 2611   0.483   0.841   0.664
  240EMC      H 2612   0.383   1.301   0.592
  240EMC      H 2613   0.514   1.413   0.635
  240EMC      H 2614   0.429   1.327   0.765
  241EMC      C 2615   1.612   1.648   1.661
  241EMC      C 2616   1.588   1.515   1.727
  241EMC      O 2617   1.696   1.482   1.815
  241EMC      C 2618   1.802   1.419   1.757
  241EMC      O 2619   1.811   1.389   1.640
  241EMC      O 2620   1.894   1.396   1.853
  241EMC      C 2621   2.012   1.330   1.805
  241EMC      H 2622   1.627   1.727   1.736
  241EMC      H 2623   1.526   1.676   1.598
  241EMC      H 2624   1.701   1.646   1.599
  241EMC      H 2625   1.497   1.520   1.789
  241EMC      H 2626   1.571   1.435   1.653
  241EMC      H 2627   1.986   1.231   1.764
  241EMC      H 2628   2.079   1.316   1.890
  241EMC      H 2629   2.062   1.391   1.730
  242EMC      C 2630   2.514   0.342   0.599
  242EMC      C 2631   2.546   0.397   0.736
  242EMC      O 2632   2.494   0.530   0.751
  242EMC      C 2633   2.575   0.629   0.707
  242EMC      O 2634   2.685   0.616   0.657
  242EMC      O 2635   2.512   0.747   0.728
  242EMC      C 2636   2.586   0.861   0.685
  242EMC      H 2637   2.405   0.345   0.581
  242EMC      H 2638   2.548   0.238   0.590
  242EMC      H 2639   2.560   0.401   0.521
  242EMC      H 2640   2.498   0.335   0.814
  242EMC      H 2641   2.654   0.393   0.757
  242EMC      H 2642   2.681   0.869   0.741
  242EMC      H 2643   2.527   0.950   0.707
  242EMC      H 2644   2.605   0.857   0.578
  243EMC      C 2645   2.593   2.927   3.863
  243EMC      C 2646   2.529   3.039   3.942
  243EMC      O 2647   2.413   2.992   4.012
  243EMC      C 2648   2.298   2.994   3.940
  243EMC      O 2649   2.284   3.031   3.825
  243EMC      O 2650   2.199   2.946   4.020
  243EMC      C 2651   2.071   2.942   3.958
  243EMC      H 2652   2.618   2.843   3.929
  243EMC      H 2653   2.685   2.962   3.814
  243EMC      H 2654   2.526   2.889   3.787
  243EMC      H 2655   2.599   3.076   4.018
  243EMC      H 2656   2.505   3.125   3.877
  243EMC      H 2657   2.039   3.044   3.929
  243EMC      H 2658   1.999   2.903   4.030
  243EMC      H 2659   2.072   2.876   3.871
  244EMC      C 2660   3.201   2.205   3.244
  244EMC      C 2661   3.313   2.255   3.156
  244EMC      O 2662   3.385   2.145   3.098
  244EMC      C 2663   3.485   2.094   3.175
  244EMC      O 2664   3.518   2.133   3.285
  244EMC      O 2665   3.541   1.992   3.107
  244EMC      C 2666   3.649   1.928   3.176
  244EMC      H 2667   3.134   2.139   3.187
  244EMC      H 2668   3.142   2.289   3.283
  244EMC      H 2669   3.239   2.147   3.327
  244EMC      H 2670   3.272   2.314   3.072
  244EMC      H 2671   3.380   2.322   3.211
  244EMC      H 2672   3.731   2.000   3.194
  244EMC      H 2673   3.687   1.848   3.113
  244EMC      H 2674   3.614   1.885   3.270
  245EMC      C 2675   1.040   3.196   3.180
  245EMC      C 2676   0.984   3.261   3.304
  245EMC      O 2677   1.025   3.398   3.311
  245EMC      C 2678   1.146   3.420   3.370
  245EMC      O 2679   1.220   3.335   3.416
  245EMC      O 2680   1.169   3.553   3.369
  245EMC      C 2681   1.294   3.591   3.428
  245EMC      H 2682   1.009   3.252   3.090
  245EMC      H 2683   1.004   3.093   3.171
  245EMC      H 2684   1.149   3.195   3.181
  245EMC      H 2685   0.874   3.261   3.300
  245EMC      H 2686   1.013   3.206   3.395
  245EMC      H 2687   1.297   3.562   3.534
  245EMC      H 2688   1.303   3.700   3.422
  245EMC      H 2689   1.377   3.547   3.373
  246EMC      C 2690   2.764   0.713   2.345
  246EMC      C 2691   2.871   0.730   2.450
  246EMC      O 2692   2.888   0.868   2.483
  246EMC      C 2693   2.974   0.937   2.404
  246EMC      O 2694   3.036   0.892   2.310
  246EMC      O 2695   2.977   1.065   2.448
  246EMC      C 2696   3.065   1.149   2.373
  246EMC      H 2697   2.670   0.757   2.378
  246EMC      H 2698   2.747   0.606   2.323
  246EMC      H 2699   2.792   0.762   2.252
  246EMC      H 2700   2.841   0.678   2.542
  246EMC      H 2701   2.966   0.684   2.418
  246EMC      H 2702   3.169   1.113   2.379
  246EMC      H 2703   3.061   1.249   2.417
  246EMC      H 2704   3.032   1.156   2.269
  247EMC      C 2705   1.213   3.124   0.904
  247EMC      C 2706   1.250   3.232   1.004
  247EMC      O 2707   1.132   3.287   1.064
  247EMC      C 2708   1.075   3.389   0.995
  247EMC      O 2709   1.114   3.436   0.890
  247EMC      O 2710   0.965   3.429   1.064
  247EMC      C 2711   0.895   3.537   1.003
  247EMC      H 2712   1.152   3.046   0.951
  247EMC      H 2713   1.304   3.077   0.862
  247EMC      H 2714   1.155   3.165   0.822
  247EMC      H 2715   1.309   3.188   1.086
  247EMC      H 2716   1.313   3.309   0.958
  247EMC      H 2717   0.959   3.627   0.995
  247EMC      H 2718   0.809   3.562   1.066
  247EMC      H 2719   0.857   3.508   0.905
  248EMC      C 2720   0.691   0.868   1.530
  248EMC      C 2721   0.672   0.747   1.618
  248EMC      O 2722   0.798   0.693   1.659
  248EMC      C 2723   0.853   0.604   1.572
  248EMC      O 2724   0.806   0.568   1.466
  248EMC      O 2725   0.972   0.563   1.624
  248EMC      C 2726   1.041   0.469   1.543
  248EMC      H 2727   0.753   0.944   1.581
  248EMC      H 2728   0.594   0.913   1.504
  248EMC      H 2729   0.743   0.842   1.438
  248EMC      H 2730   0.619   0.776   1.711
  248EMC      H 2731   0.609   0.671   1.569
  248EMC      H 2732   0.982   0.377   1.530
  248EMC      H 2733   1.134   0.442   1.593
  248EMC      H 2734   1.066   0.513   1.446
  249EMC      C 2735   3.777   3.839   2.948
  249EMC      C 2736   3.659   3.743   2.953
  249EMC      O 2737   3.547   3.805   3.017
  249EMC      C 2738   3.545   3.794   3.153
  249EMC      O 2739   3.627   3.738   3.222
  249EMC      O 2740   3.433   3.858   3.197
  249EMC      C 2741   3.417   3.854   3.339
  249EMC      H 2742   3.748   3.932   2.898
  249EMC      H 2743   3.861   3.794   2.894
  249EMC      H 2744   3.810   3.865   3.048
  249EMC      H 2745   3.628   3.718   2.851
  249EMC      H 2746   3.687   3.649   3.002
  249EMC      H 2747   3.408   3.750   3.375
  249EMC      H 2748   3.325   3.907   3.364
  249EMC      H 2749   3.500   3.904   3.388
  250EMC      C 2750   2.001   3.131   0.566
  250EMC      C 2751   1.968   2.998   0.502
  250EMC      O 2752   2.088   2.932   0.459
  250EMC      C 2753   2.131   2.966   0.335
  250EMC      O 2754   2.079   3.046   0.259
  250EMC      O 2755   2.244   2.896   0.309
  250EMC      C 2756   2.301   2.922   0.181
  250EMC      H 2757   2.072   3.117   0.650
  250EMC      H 2758   1.911   3.179   0.605
  250EMC      H 2759   2.049   3.198   0.496
  250EMC      H 2760   1.920   2.932   0.576
  250EMC      H 2761   1.896   3.010   0.420
  250EMC      H 2762   2.231   2.895   0.101
  250EMC      H 2763   2.391   2.860   0.171
  250EMC      H 2764   2.330   3.027   0.173
  251EMC      C 2765   0.466   0.837   3.582
  251EMC      C 2766   0.369   0.923   3.505
  251EMC      O 2767   0.422   1.054   3.485
  251EMC      C 2768   0.398   1.142   3.586
  251EMC      O 2769   0.337   1.119   3.688
  251EMC      O 2770   0.455   1.260   3.552
  251EMC      C 2771   0.438   1.363   3.650
  251EMC      H 2772   0.563   0.834   3.531
  251EMC      H 2773   0.428   0.734   3.592
  251EMC      H 2774   0.483   0.877   3.682
  251EMC      H 2775   0.352   0.879   3.405
  251EMC      H 2776   0.270   0.926   3.553
  251EMC      H 2777   0.331   1.385   3.665
  251EMC      H 2778   0.486   1.453   3.613
  251EMC      H 2779   0.485   1.335   3.744
  252EMC      C 2780   1.511   1.959   1.987
  252EMC      C 2781   1.656   1.977   1.950
  252EMC      O 2782   1.737   1.875   2.008
  252EMC      C 2783   1.780   1.900   2.134
  252EMC      O 2784   1.757   1.999   2.200
  252EMC      O 2785   1.855   1.793   2.174
  252EMC      C 2786   1.907   1.806   2.307
  252EMC      H 2787   1.476   1.859   1.958
  252EMC      H 2788   1.448   2.034   1.938
  252EMC      H 2789   1.497   1.967   2.095
  252EMC      H 2790   1.668   1.969   1.840
  252EMC      H 2791   1.692   2.078   1.977
  252EMC      H 2792   1.974   1.893   2.314
  252EMC      H 2793   1.965   1.716   2.329
  252EMC      H 2794   1.827   1.814   2.379
  253EMC      C 2795   1.778   1.930   1.202
  253EMC      C 2796   1.869   2.031   1.136
  253EMC      O 2797   1.891   1.998   0.999
  253EMC      C 2798   1.993   1.911   0.977
  253EMC      O 2799   2.066   1.861   1.061
  253EMC      O 2800   2.000   1.889   0.843
  253EMC      C 2801   2.105   1.800   0.804
  253EMC      H 2802   1.683   1.922   1.147
  253EMC      H 2803   1.756   1.959   1.306
  253EMC      H 2804   1.823   1.831   1.203
  253EMC      H 2805   1.821   2.131   1.138
  253EMC      H 2806   1.963   2.042   1.191
  253EMC      H 2807   2.203   1.840   0.833
  253EMC      H 2808   2.102   1.790   0.695
  253EMC      H 2809   2.089   1.701   0.848
  254EMC      C 2810   1.902   2.722   0.884
  254EMC      C 2811   1.950   2.865   0.892
  254EMC      O 2812   1.870   2.940   0.985
  254EMC      C 2813   1.757   2.994   0.933
  254EMC      O 2814   1.719   2.986   0.818
  254EMC      O 2815   1.694   3.060   1.033
  254EMC      C 2816   1.572   3.124   0.993
  254EMC      H 2817   1.902   2.676   0.983
  254EMC      H 2818   1.967   2.663   0.817
  254EMC      H 2819   1.800   2.716   0.847
  254EMC      H 2820   2.053   2.868   0.929
  254EMC      H 2821   1.952   2.913   0.793
  254EMC      H 2822   1.591   3.199   0.915
  254EMC      H 2823   1.529   3.174   1.080
  254EMC      H 2824   1.500   3.049   0.957
  255EMC      C 2825   1.276   2.582   2.320
  255EMC      C 2826   1.133   2.594   2.368
  255EMC      O 2827   1.098   2.731   2.386
  255EMC      C 2828   1.129   2.783   2.507
  255EMC      O 2829   1.182   2.725   2.599
  255EMC      O 2830   1.089   2.913   2.508
  255EMC      C 2831   1.116   2.981   2.631
  255EMC      H 2832   1.291   2.640   2.227
  255EMC      H 2833   1.301   2.477   2.300
  255EMC      H 2834   1.346   2.621   2.393
  255EMC      H 2835   1.065   2.553   2.291
  255EMC      H 2836   1.116   2.535   2.459
  255EMC      H 2837   1.062   2.934   2.714
  255EMC      H 2838   1.080   3.084   2.621
  255EMC      H 2839   1.223   2.984   2.651
  256EMC      C 2840   1.513   2.978   1.746
  256EMC      C 2841   1.408   2.912   1.834
  256EMC      O 2842   1.451   2.782   1.874
  256EMC      C 2843   1.421   2.682   1.787
  256EMC      O 2844   1.364   2.694   1.680
  256EMC      O 2845   1.468   2.566   1.839
  256EMC      C 2846   1.444   2.451   1.758
  256EMC      H 2847   1.610   2.981   1.798
  256EMC      H 2848   1.483   3.080   1.720
  256EMC      H 2849   1.528   2.922   1.654
  256EMC      H 2850   1.394   2.971   1.926
  256EMC      H 2851   1.310   2.910   1.784
  256EMC      H 2852   1.336   2.436   1.744
  256EMC      H 2853   1.485   2.364   1.809
  256EMC      H 2854   1.494   2.462   1.661
  257EMC      C 2855   1.982   2.368   0.957
  257EMC      C 2856   2.055   2.339   1.086
  257EMC      O 2857   2.194   2.370   1.074
  257EMC      C 2858   2.271   2.271   1.023
  257EMC      O 2859   2.234   2.160   0.989
  257EMC      O 2860   2.399   2.316   1.017
  257EMC      C 2861   2.492   2.221   0.966
  257EMC      H 2862   1.997   2.473   0.927
  257EMC      H 2863   1.874   2.350   0.969
  257EMC      H 2864   2.019   2.306   0.876
  257EMC      H 2865   2.015   2.403   1.167
  257EMC      H 2866   2.039   2.235   1.119
  257EMC      H 2867   2.496   2.131   1.030
  257EMC      H 2868   2.591   2.267   0.966
  257EMC      H 2869   2.466   2.194   0.863
  258EMC      C 2870   2.997   0.818   1.990
  258EMC      C 2871   2.898   0.789   1.880
  258EMC      O 2872   2.951   0.827   1.753
  258EMC      C 2873   2.932   0.957   1.718
  258EMC      O 2874   2.874   1.041   1.784
  258EMC      O 2875   2.988   0.977   1.596
  258EMC      C 2876   2.975   1.110   1.547
  258EMC      H 2877   3.093   0.767   1.970
  258EMC      H 2878   2.959   0.783   2.087
  258EMC      H 2879   3.019   0.924   1.997
  258EMC      H 2880   2.878   0.681   1.875
  258EMC      H 2881   2.801   0.837   1.900
  258EMC      H 2882   2.869   1.137   1.535
  258EMC      H 2883   3.023   1.115   1.449
  258EMC      H 2884   3.025   1.181   1.614
  259EMC      C 2885   0.728   2.171   1.223
  259EMC      C 2886   0.833   2.067   1.192
  259EMC      O 2887   0.805   1.945   1.260
  259EMC      C 2888   0.854   1.937   1.387
  259EMC      O 2889   0.917   2.022   1.445
  259EMC      O 2890   0.818   1.816   1.437
  259EMC      C 2891   0.864   1.793   1.570
  259EMC      H 2892   0.628   2.133   1.198
  259EMC      H 2893   0.746   2.263   1.166
  259EMC      H 2894   0.727   2.196   1.329
  259EMC      H 2895   0.832   2.045   1.084
  259EMC      H 2896   0.934   2.104   1.215
  259EMC      H 2897   0.973   1.796   1.576
  259EMC      H 2898   0.830   1.693   1.601
  259EMC      H 2899   0.820   1.866   1.639
  260EMC      C 2900   2.155   3.080   3.293
  260EMC      C 2901   2.013   3.051   3.334
  260EMC      O 2902   1.932   3.022   3.220
  260EMC      C 2903   1.877   3.130   3.159
  260EMC      O 2904   1.891   3.246   3.192
  260EMC      O 2905   1.805   3.086   3.053
  260EMC      C 2906   1.741   3.190   2.979
  260EMC      H 2907   2.196   2.997   3.234
  260EMC      H 2908   2.219   3.096   3.381
  260EMC      H 2909   2.160   3.169   3.230
  260EMC      H 2910   2.011   2.961   3.399
  260EMC      H 2911   1.971   3.133   3.395
  260EMC      H 2912   1.670   3.245   3.043
  260EMC      H 2913   1.685   3.144   2.897
  260EMC      H 2914   1.815   3.258   2.937
  261EMC      C 2915   3.375   3.086   2.184
  261EMC      C 2916   3.457   3.034   2.068
  261EMC      O 2917   3.506   3.142   1.988
  261EMC      C 2918   3.421   3.186   1.892
  261EMC      O 2919   3.310   3.142   1.868
  261EMC      O 2920   3.482   3.288   1.827
  261EMC      C 2921   3.403   3.345   1.721
  261EMC      H 2922   3.435   3.156   2.244
  261EMC      H 2923   3.343   3.003   2.249
  261EMC      H 2924   3.287   3.139   2.150
  261EMC      H 2925   3.545   2.980   2.106
  261EMC      H 2926   3.400   2.962   2.008
  261EMC      H 2927   3.381   3.269   1.644
  261EMC      H 2928   3.461   3.425   1.675
  261EMC      H 2929   3.311   3.387   1.761
  262EMC      C 2930   0.712   0.204   3.167
  262EMC      C 2931   0.575   0.212   3.104
  262EMC      O 2932   0.532   0.348   3.095
  262EMC      C 2933   0.470   0.397   3.205
  262EMC      O 2934   0.448   0.336   3.308
  262EMC      O 2935   0.436   0.526   3.180
  262EMC      C 2936   0.369   0.590   3.289
  262EMC      H 2937   0.784   0.265   3.111
  262EMC      H 2938   0.748   0.100   3.168
  262EMC      H 2939   0.711   0.241   3.269
  262EMC      H 2940   0.579   0.173   3.001
  262EMC      H 2941   0.502   0.150   3.158
  262EMC      H 2942   0.274   0.539   3.312
  262EMC      H 2943   0.346   0.693   3.259
  262EMC      H 2944   0.433   0.594   3.377
  263EMC      C 2945   3.627   2.199   2.244
  263EMC      C 2946   3.508   2.198   2.150
  263EMC      O 2947   3.494   2.324   2.085
  263EMC      C 2948   3.423   2.417   2.154
  263EMC      O 2949   3.370   2.402   2.262
  263EMC      O 2950   3.419   2.530   2.079
  263EMC      C 2951   3.347   2.638   2.139
  263EMC      H 2952   3.718   2.226   2.189
  263EMC      H 2953   3.641   2.100   2.289
  263EMC      H 2954   3.614   2.272   2.323
  263EMC      H 2955   3.524   2.123   2.071
  263EMC      H 2956   3.416   2.169   2.203
  263EMC      H 2957   3.241   2.609   2.154
  263EMC      H 2958   3.350   2.723   2.071
  263EMC      H 2959   3.392   2.667   2.234
  264EMC      C 2960   3.080   0.784   0.281
  264EMC      C 2961   3.097   0.653   0.208
  264EMC      O 2962   2.980   0.573   0.219
  264EMC      C 2963   2.974   0.495   0.330
  264EMC      O 2964   3.058   0.487   0.417
  264EMC      O 2965   2.857   0.426   0.326
  264EMC      C 2966   2.837   0.338   0.437
  264EMC      H 2967   2.991   0.838   0.245
  264EMC      H 2968   3.168   0.848   0.267
  264EMC      H 2969   3.066   0.768   0.388
  264EMC      H 2970   3.112   0.673   0.100
  264EMC      H 2971   3.187   0.599   0.242
  264EMC      H 2972   2.916   0.262   0.441
  264EMC      H 2973   2.741   0.288   0.424
  264EMC      H 2974   2.834   0.395   0.530
  265EMC      C 2975   2.231   2.156   2.234
  265EMC      C 2976   2.343   2.166   2.335
  265EMC      O 2977   2.464   2.111   2.282
  265EMC      C 2978   2.479   1.977   2.299
  265EMC      O 2979   2.401   1.902   2.354
  265EMC      O 2980   2.597   1.942   2.243
  265EMC      C 2981   2.627   1.802   2.254
  265EMC      H 2982   2.259   2.205   2.140
  265EMC      H 2983   2.139   2.203   2.272
  265EMC      H 2984   2.208   2.052   2.210
  265EMC      H 2985   2.363   2.272   2.357
  265EMC      H 2986   2.315   2.119   2.430
  265EMC      H 2987   2.634   1.772   2.359
  265EMC      H 2988   2.724   1.785   2.206
  265EMC      H 2989   2.551   1.743   2.201
  266EMC      C 2990   3.934   1.896   0.577
  266EMC      C 2991   3.822   1.796   0.595
  266EMC      O 2992   3.823   1.700   0.489
  266EMC      C 2993   3.755   1.736   0.377
  266EMC      O 2994   3.695   1.840   0.360
  266EMC      O 2995   3.766   1.634   0.288
  266EMC      C 2996   3.698   1.659   0.164
  266EMC      H 2997   4.031   1.844   0.570
  266EMC      H 2998   3.938   1.966   0.661
  266EMC      H 2999   3.923   1.952   0.485
  266EMC      H 3000   3.837   1.741   0.689
  266EMC      H 3001   3.725   1.846   0.603
  266EMC      H 3002   3.590   1.672   0.181
  266EMC      H 3003   3.713   1.572   0.100
  266EMC      H 3004   3.740   1.746   0.114
  267EMC      C 3005   3.554   3.691   3.677
  267EMC      C 3006   3.510   3.577   3.766
  267EMC      O 3007   3.618   3.486   3.788
  267EMC      C 3008   3.632   3.389   3.694
  267EMC      O 3009   3.563   3.374   3.595
  267EMC      O 3010   3.738   3.312   3.729
  267EMC      C 3011   3.765   3.205   3.638
  267EMC      H 3012   3.642   3.742   3.719
  267EMC      H 3013   3.473   3.765   3.664
  267EMC      H 3014   3.583   3.655   3.578
  267EMC      H 3015   3.480   3.617   3.864
  267EMC      H 3016   3.421   3.526   3.725
  267EMC      H 3017   3.679   3.137   3.633
  267EMC      H 3018   3.851   3.150   3.676
  267EMC      H 3019   3.790   3.244   3.539
  268EMC      C 3020   3.034   2.692   3.355
  268EMC      C 3021   3.104   2.577   3.425
  268EMC      O 3022   3.244   2.605   3.441
  268EMC      C 3023   3.322   2.571   3.335
  268EMC      O 3024   3.284   2.519   3.231
  268EMC      O 3025   3.450   2.604   3.365
  268EMC      C 3026   3.544   2.573   3.262
  268EMC      H 3027   3.051   2.786   3.410
  268EMC      H 3028   2.926   2.673   3.349
  268EMC      H 3029   3.073   2.706   3.255
  268EMC      H 3030   3.063   2.565   3.526
  268EMC      H 3031   3.087   2.482   3.373
  268EMC      H 3032   3.545   2.464   3.243
  268EMC      H 3033   3.643   2.603   3.297
  268EMC      H 3034   3.520   2.628   3.171
  269EMC      C 3035   2.990   0.786   2.726
  269EMC      C 3036   3.057   0.869   2.833
  269EMC      O 3037   3.188   0.818   2.861
  269EMC      C 3038   3.192   0.719   2.954
  269EMC      O 3039   3.098   0.671   3.014
  269EMC      O 3040   3.322   0.682   2.969
  269EMC      C 3041   3.342   0.578   3.065
  269EMC      H 3042   3.052   0.781   2.636
  269EMC      H 3043   2.892   0.828   2.700
  269EMC      H 3044   2.975   0.683   2.759
  269EMC      H 3045   3.071   0.972   2.797
  269EMC      H 3046   2.996   0.875   2.924
  269EMC      H 3047   3.309   0.610   3.165
  269EMC      H 3048   3.449   0.556   3.070
  269EMC      H 3049   3.289   0.487   3.035
  270EMC      C 3050   3.455   1.272   0.480
  270EMC      C 3051   3.433   1.245   0.333
  270EMC      O 3052   3.442   1.366   0.258
  270EMC      C 3053   3.326   1.437   0.248
  270EMC      O 3054   3.219   1.407   0.297
  270EMC      O 3055   3.352   1.548   0.174
  270EMC      C 3056   3.238   1.633   0.156
  270EMC      H 3057   3.552   1.323   0.496
  270EMC      H 3058   3.455   1.179   0.537
  270EMC      H 3059   3.378   1.338   0.520
  270EMC      H 3060   3.512   1.178   0.295
  270EMC      H 3061   3.338   1.193   0.316
  270EMC      H 3062   3.158   1.579   0.102
  270EMC      H 3063   3.269   1.718   0.096
  270EMC      H 3064   3.202   1.670   0.252
  271EMC      C 3065   3.525   0.255   3.138
  271EMC      C 3066   3.511   0.338   3.264
  271EMC      O 3067   3.635   0.401   3.296
  271EMC      C 3068   3.721   0.326   3.370
  271EMC      O 3069   3.702   0.214   3.411
  271EMC      O 3070   3.833   0.400   3.391
  271EMC      C 3071   3.932   0.334   3.469
  271EMC      H 3072   3.561   0.317   3.055
  271EMC      H 3073   3.428   0.212   3.110
  271EMC      H 3074   3.596   0.175   3.151
  271EMC      H 3075   3.437   0.418   3.248
  271EMC      H 3076   3.473   0.278   3.348
  271EMC      H 3077   3.894   0.309   3.569
  271EMC      H 3078   4.017   0.401   3.481
  271EMC      H 3079   3.967   0.243   3.418
  272EMC      C 3080   0.867   2.279   2.131
  272EMC      C 3081   0.880   2.410   2.057
  272EMC      O 3082   0.900   2.518   2.149
  272EMC      C 3083   0.787   2.573   2.200
  272EMC      O 3084   0.673   2.540   2.174
  272EMC      O 3085   0.823   2.673   2.284
  272EMC      C 3086   0.713   2.740   2.345
  272EMC      H 3087   0.955   2.262   2.195
  272EMC      H 3088   0.858   2.196   2.061
  272EMC      H 3089   0.780   2.279   2.197
  272EMC      H 3090   0.969   2.407   1.992
  272EMC      H 3091   0.794   2.428   1.992
  272EMC      H 3092   0.649   2.788   2.269
  272EMC      H 3093   0.752   2.818   2.411
  272EMC      H 3094   0.654   2.671   2.406
  273EMC      C 3095   2.923   2.650   0.859
  273EMC      C 3096   2.974   2.706   0.729
  273EMC      O 3097   2.967   2.608   0.625
  273EMC      C 3098   3.075   2.526   0.616
  273EMC      O 3099   3.174   2.528   0.686
  273EMC      O 3100   3.053   2.439   0.514
  273EMC      C 3101   3.159   2.346   0.493
  273EMC      H 3102   2.821   2.611   0.847
  273EMC      H 3103   2.923   2.727   0.937
  273EMC      H 3104   2.985   2.567   0.893
  273EMC      H 3105   2.910   2.791   0.697
  273EMC      H 3106   3.076   2.747   0.739
  273EMC      H 3107   3.252   2.398   0.467
  273EMC      H 3108   3.131   2.281   0.409
  273EMC      H 3109   3.173   2.283   0.581
  274EMC      C 3110   1.935   2.929   2.187
  274EMC      C 3111   1.922   3.057   2.265
  274EMC      O 3112   2.045   3.130   2.264
  274EMC      C 3113   2.134   3.095   2.362
  274EMC      O 3114   2.117   3.010   2.447
  274EMC      O 3115   2.244   3.172   2.347
  274EMC      C 3116   2.347   3.146   2.443
  274EMC      H 3117   1.969   2.950   2.084
  274EMC      H 3118   1.839   2.876   2.182
  274EMC      H 3119   2.009   2.862   2.231
  274EMC      H 3120   1.846   3.122   2.218
  274EMC      H 3121   1.887   3.038   2.368
  274EMC      H 3122   2.310   3.166   2.545
  274EMC      H 3123   2.430   3.213   2.422
  274EMC      H 3124   2.382   3.043   2.435
  275EMC      C 3125   3.062   1.541   2.228
  275EMC      C 3126   3.039   1.458   2.104
  275EMC      O 3127   2.943   1.519   2.019
  275EMC      C 3128   2.813   1.488   2.046
  275EMC      O 3129   2.774   1.415   2.135
  275EMC      O 3130   2.735   1.554   1.957
  275EMC      C 3131   2.595   1.531   1.975
  275EMC      H 3132   3.091   1.644   2.201
  275EMC      H 3133   3.140   1.498   2.291
  275EMC      H 3134   2.971   1.549   2.287
  275EMC      H 3135   3.133   1.452   2.046
  275EMC      H 3136   3.012   1.355   2.129
  275EMC      H 3137   2.572   1.424   1.961
  275EMC      H 3138   2.541   1.588   1.898
  275EMC      H 3139   2.562   1.565   2.073
  276EMC      C 3140   1.512   1.825   2.497
  276EMC      C 3141   1.398   1.762   2.574
  276EMC      O 3142   1.423   1.767   2.714
  276EMC      C 3143   1.496   1.663   2.764
  276EMC      O 3144   1.539   1.569   2.701
  276EMC      O 3145   1.511   1.683   2.897
  276EMC      C 3146   1.586   1.581   2.963
  276EMC      H 3147   1.530   1.928   2.531
  276EMC      H 3148   1.490   1.827   2.389
  276EMC      H 3149   1.605   1.770   2.512
  276EMC      H 3150   1.305   1.820   2.556
  276EMC      H 3151   1.378   1.660   2.540
  276EMC      H 3152   1.535   1.483   2.953
  276EMC      H 3153   1.592   1.606   3.069
  276EMC      H 3154   1.687   1.575   2.923
  277EMC      C 3155   1.234   2.963   3.509
  277EMC      C 3156   1.164   2.833   3.475
  277EMC      O 3157   1.257   2.724   3.477
  277EMC      C 3158   1.325   2.703   3.362
  277EMC      O 3159   1.314   2.767   3.259
  277EMC      O 3160   1.408   2.598   3.381
  277EMC      C 3161   1.486   2.564   3.266
  277EMC      H 3162   1.284   2.955   3.607
  277EMC      H 3163   1.162   3.046   3.513
  277EMC      H 3164   1.310   2.987   3.436
  277EMC      H 3165   1.087   2.811   3.550
  277EMC      H 3166   1.112   2.840   3.378
  277EMC      H 3167   1.421   2.535   3.182
  277EMC      H 3168   1.549   2.478   3.292
  277EMC      H 3169   1.551   2.647   3.238
  278EMC      C 3170   1.663   2.261   2.511
  278EMC      C 3171   1.657   2.351   2.632
  278EMC      O 3172   1.539   2.325   2.709
  278EMC      C 3173   1.428   2.393   2.670
  278EMC      O 3174   1.421   2.473   2.578
  278EMC      O 3175   1.327   2.358   2.751
  278EMC      C 3176   1.203   2.422   2.722
  278EMC      H 3177   1.657   2.156   2.541
  278EMC      H 3178   1.756   2.277   2.455
  278EMC      H 3179   1.579   2.280   2.444
  278EMC      H 3180   1.743   2.331   2.698
  278EMC      H 3181   1.665   2.457   2.604
  278EMC      H 3182   1.212   2.531   2.733
  278EMC      H 3183   1.128   2.387   2.793
  278EMC      H 3184   1.169   2.397   2.621
  279EMC      C 3185   1.635   2.136   2.918
  279EMC      C 3186   1.554   2.248   2.978
  279EMC      O 3187   1.587   2.266   3.116
  279EMC      C 3188   1.517   2.187   3.203
  279EMC      O 3189   1.432   2.106   3.174
  279EMC      O 3190   1.560   2.216   3.328
  279EMC      C 3191   1.495   2.140   3.430
  279EMC      H 3192   1.743   2.154   2.932
  279EMC      H 3193   1.615   2.126   2.811
  279EMC      H 3194   1.613   2.041   2.966
  279EMC      H 3195   1.579   2.343   2.927
  279EMC      H 3196   1.446   2.232   2.964
  279EMC      H 3197   1.387   2.161   3.431
  279EMC      H 3198   1.536   2.171   3.527
  279EMC      H 3199   1.514   2.034   3.417
  280EMC      C 3200   1.867   0.735   1.367
  280EMC      C 3201   1.937   0.868   1.353
  280EMC      O 3202   2.057   0.870   1.431
  280EMC      C 3203   2.041   0.907   1.560
  280EMC      O 3204   1.936   0.939   1.614
  280EMC      O 3205   2.163   0.904   1.620
  280EMC      C 3206   2.161   0.941   1.758
  280EMC      H 3207   1.934   0.652   1.339
  280EMC      H 3208   1.778   0.731   1.302
  280EMC      H 3209   1.835   0.718   1.469
  280EMC      H 3210   1.967   0.883   1.247
  280EMC      H 3211   1.871   0.952   1.378
  280EMC      H 3212   2.126   1.045   1.769
  280EMC      H 3213   2.263   0.935   1.796
  280EMC      H 3214   2.098   0.873   1.815
  281EMC      C 3215   3.595   3.923   1.608
  281EMC      C 3216   3.656   3.846   1.493
  281EMC      O 3217   3.608   3.896   1.368
  281EMC      C 3218   3.491   3.842   1.324
  281EMC      O 3219   3.426   3.756   1.381
  281EMC      O 3220   3.460   3.899   1.206
  281EMC      C 3221   3.339   3.851   1.148
  281EMC      H 3222   3.615   4.030   1.597
  281EMC      H 3223   3.636   3.889   1.704
  281EMC      H 3224   3.487   3.911   1.610
  281EMC      H 3225   3.765   3.859   1.493
  281EMC      H 3226   3.638   3.738   1.503
  281EMC      H 3227   3.345   3.744   1.127
  281EMC      H 3228   3.323   3.904   1.053
  281EMC      H 3229   3.254   3.873   1.213
  282EMC      C 3230   2.927   3.062   2.139
  282EMC      C 3231   2.913   2.971   2.019
  282EMC      O 3232   2.787   2.990   1.955
  282EMC      C 3233   2.685   2.916   2.006
  282EMC      O 3234   2.692   2.837   2.098
  282EMC      O 3235   2.573   2.946   1.936
  282EMC      C 3236   2.457   2.874   1.978
  282EMC      H 3237   2.912   3.167   2.109
  282EMC      H 3238   3.026   3.052   2.184
  282EMC      H 3239   2.852   3.039   2.214
  282EMC      H 3240   2.991   2.996   1.944
  282EMC      H 3241   2.930   2.866   2.046
  282EMC      H 3242   2.471   2.766   1.966
  282EMC      H 3243   2.373   2.905   1.915
  282EMC      H 3244   2.433   2.899   2.082
  283EMC      C 3245   3.854   0.353   1.521
  283EMC      C 3246   3.750   0.296   1.428
  283EMC      O 3247   3.664   0.400   1.379
  283EMC      C 3248   3.558   0.429   1.459
  283EMC      O 3249   3.530   0.376   1.565
  283EMC      O 3250   3.487   0.528   1.399
  283EMC      C 3251   3.371   0.570   1.472
  283EMC      H 3252   3.911   0.433   1.471
  283EMC      H 3253   3.924   0.275   1.554
  283EMC      H 3254   3.808   0.398   1.609
  283EMC      H 3255   3.799   0.252   1.340
  283EMC      H 3256   3.693   0.216   1.476
  283EMC      H 3257   3.301   0.486   1.483
  283EMC      H 3258   3.322   0.649   1.415
  283EMC      H 3259   3.400   0.609   1.569
  284EMC      C 3260   3.560   3.620   1.985
  284EMC      C 3261   3.452   3.699   1.916
  284EMC      O 3262   3.423   3.819   1.988
  284EMC      C 3263   3.330   3.806   2.087
  284EMC      O 3264   3.272   3.704   2.118
  284EMC      O 3265   3.314   3.927   2.145
  284EMC      C 3266   3.219   3.928   2.251
  284EMC      H 3267   3.650   3.681   2.000
  284EMC      H 3268   3.587   3.531   1.927
  284EMC      H 3269   3.528   3.588   2.084
  284EMC      H 3270   3.487   3.730   1.816
  284EMC      H 3271   3.362   3.638   1.899
  284EMC      H 3272   3.119   3.900   2.215
  284EMC      H 3273   3.213   4.030   2.291
  284EMC      H 3274   3.251   3.862   2.332
  285EMC      C 3275   0.822   1.670   0.582
  285EMC      C 3276   0.797   1.743   0.452
  285EMC      O 3277   0.863   1.678   0.343
  285EMC      C 3278   0.993   1.715   0.324
  285EMC      O 3279   1.055   1.797   0.388
  285EMC      O 3280   1.041   1.644   0.218
  285EMC      C 3281   1.176   1.673   0.186
  285EMC      H 3282   0.792   1.564   0.573
  285EMC      H 3283   0.767   1.716   0.664
  285EMC      H 3284   0.928   1.670   0.607
  285EMC      H 3285   0.689   1.742   0.429
  285EMC      H 3286   0.826   1.849   0.459
  285EMC      H 3287   1.188   1.779   0.158
  285EMC      H 3288   1.205   1.612   0.100
  285EMC      H 3289   1.242   1.648   0.269
  286EMC      C 3290   3.828   1.057   2.034
  286EMC      C 3291   3.805   0.910   2.004
  286EMC      O 3292   3.672   0.872   2.042
  286EMC      C 3293   3.658   0.834   2.172
  286EMC      O 3294   3.745   0.830   2.256
  286EMC      O 3295   3.528   0.802   2.191
  286EMC      C 3296   3.498   0.759   2.325
  286EMC      H 3297   3.752   1.119   1.984
  286EMC      H 3298   3.928   1.088   1.999
  286EMC      H 3299   3.821   1.077   2.140
  286EMC      H 3300   3.813   0.892   1.896
  286EMC      H 3301   3.881   0.847   2.052
  286EMC      H 3302   3.555   0.669   2.351
  286EMC      H 3303   3.391   0.735   2.330
  286EMC      H 3304   3.518   0.840   2.396
  287EMC      C 3305   1.037   3.672   0.497
  287EMC      C 3306   0.939   3.577   0.562
  287EMC      O 3307   1.000   3.450   0.585
  287EMC      C 3308   0.994   3.363   0.480
  287EMC      O 3309   0.943   3.384   0.372
  287EMC      O 3310   1.056   3.249   0.517
  287EMC      C 3311   1.057   3.148   0.416
  287EMC      H 3312   1.128   3.681   0.558
  287EMC      H 3313   0.993   3.772   0.485
  287EMC      H 3314   1.068   3.636   0.399
  287EMC      H 3315   0.909   3.616   0.661
  287EMC      H 3316   0.847   3.568   0.503
  287EMC      H 3317   0.955   3.118   0.390
  287EMC      H 3318   1.109   3.060   0.457
  287EMC      H 3319   1.112   3.182   0.328
  288EMC      C 3320   3.462   0.871   1.058
  288EMC      C 3321   3.468   0.871   1.209
  288EMC      O 3322   3.553   0.976   1.256
  288EMC      C 3323   3.685   0.945   1.264
  288EMC      O 3324   3.735   0.838   1.236
  288EMC      O 3325   3.750   1.054   1.309
  288EMC      C 3326   3.891   1.036   1.323
  288EMC      H 3327   3.429   0.969   1.020
  288EMC      H 3328   3.392   0.794   1.022
  288EMC      H 3329   3.560   0.851   1.014
  288EMC      H 3330   3.367   0.890   1.250
  288EMC      H 3331   3.499   0.773   1.248
  288EMC      H 3332   3.913   0.956   1.396
  288EMC      H 3333   3.934   1.129   1.360
  288EMC      H 3334   3.937   1.013   1.227
  289EMC      C 3335   2.422   1.961   0.188
  289EMC      C 3336   2.502   1.880   0.288
  289EMC      O 3337   2.614   1.954   0.335
  289EMC      C 3338   2.726   1.944   0.258
  289EMC      O 3339   2.738   1.880   0.156
  289EMC      O 3340   2.823   2.020   0.316
  289EMC      C 3341   2.947   2.019   0.246
  289EMC      H 3342   2.392   2.057   0.233
  289EMC      H 3343   2.332   1.907   0.156
  289EMC      H 3344   2.481   1.985   0.100
  289EMC      H 3345   2.439   1.857   0.375
  289EMC      H 3346   2.532   1.783   0.245
  289EMC      H 3347   2.988   1.917   0.241
  289EMC      H 3348   3.017   2.082   0.300
  289EMC      H 3349   2.935   2.061   0.145
  290EMC      C 3350   2.514   1.204   0.575
  290EMC      C 3351   2.594   1.221   0.448
  290EMC      O 3352   2.712   1.298   0.473
  290EMC      C 3353   2.696   1.433   0.466
  290EMC      O 3354   2.593   1.492   0.441
  290EMC      O 3355   2.816   1.490   0.492
  290EMC      C 3356   2.815   1.633   0.488
  290EMC      H 3357   2.577   1.158   0.654
  290EMC      H 3358   2.427   1.140   0.558
  290EMC      H 3359   2.480   1.299   0.614
  290EMC      H 3360   2.627   1.123   0.411
  290EMC      H 3361   2.532   1.266   0.368
  290EMC      H 3362   2.786   1.669   0.388
  290EMC      H 3363   2.915   1.669   0.510
  290EMC      H 3364   2.747   1.673   0.564
  291EMC      C 3365   1.725   3.600   3.834
  291EMC      C 3366   1.798   3.566   3.962
  291EMC      O 3367   1.939   3.554   3.938
  291EMC      C 3368   1.980   3.431   3.897
  291EMC      O 3369   1.910   3.333   3.880
  291EMC      O 3370   2.114   3.436   3.879
  291EMC      C 3371   2.172   3.313   3.836
  291EMC      H 3372   1.767   3.692   3.790
  291EMC      H 3373   1.618   3.616   3.853
  291EMC      H 3374   1.736   3.521   3.760
  291EMC      H 3375   1.785   3.647   4.035
  291EMC      H 3376   1.757   3.475   4.008
  291EMC      H 3377   2.156   3.234   3.911
  291EMC      H 3378   2.280   3.328   3.824
  291EMC      H 3379   2.131   3.283   3.739
  292EMC      C 3380   2.636   0.826   1.080
  292EMC      C 3381   2.597   0.714   0.987
  292EMC      O 3382   2.463   0.730   0.941
  292EMC      C 3383   2.367   0.677   1.023
  292EMC      O 3384   2.386   0.619   1.128
  292EMC      O 3385   2.247   0.701   0.966
  292EMC      C 3386   2.136   0.651   1.041
  292EMC      H 3387   2.622   0.924   1.031
  292EMC      H 3388   2.741   0.818   1.110
  292EMC      H 3389   2.574   0.827   1.170
  292EMC      H 3390   2.662   0.716   0.898
  292EMC      H 3391   2.613   0.616   1.034
  292EMC      H 3392   2.143   0.542   1.051
  292EMC      H 3393   2.045   0.675   0.987
  292EMC      H 3394   2.132   0.699   1.139
  293EMC      C 3395   0.747   0.558   1.076
  293EMC      C 3396   0.872   0.598   1.151
  293EMC      O 3397   0.861   0.732   1.200
  293EMC      C 3398   0.900   0.828   1.112
  293EMC      O 3399   0.942   0.810   0.999
  293EMC      O 3400   0.884   0.948   1.172
  293EMC      C 3401   0.922   1.060   1.091
  293EMC      H 3402   0.658   0.572   1.139
  293EMC      H 3403   0.752   0.453   1.044
  293EMC      H 3404   0.732   0.621   0.988
  293EMC      H 3405   0.884   0.533   1.240
  293EMC      H 3406   0.962   0.583   1.090
  293EMC      H 3407   1.028   1.054   1.065
  293EMC      H 3408   0.905   1.151   1.149
  293EMC      H 3409   0.860   1.064   1.001
  294EMC      C 3410   3.095   2.629   2.513
  294EMC      C 3411   3.080   2.779   2.503
  294EMC      O 3412   3.207   2.841   2.481
  294EMC      C 3413   3.278   2.868   2.593
  294EMC      O 3414   3.245   2.846   2.708
  294EMC      O 3415   3.395   2.926   2.555
  294EMC      C 3416   3.481   2.960   2.664
  294EMC      H 3417   3.143   2.589   2.422
  294EMC      H 3418   2.996   2.581   2.523
  294EMC      H 3419   3.157   2.601   2.597
  294EMC      H 3420   3.016   2.805   2.417
  294EMC      H 3421   3.030   2.820   2.592
  294EMC      H 3422   3.433   3.034   2.730
  294EMC      H 3423   3.571   3.006   2.623
  294EMC      H 3424   3.510   2.871   2.720
  295EMC      C 3425   3.432   1.342   3.340
  295EMC      C 3426   3.398   1.220   3.421
  295EMC      O 3427   3.257   1.193   3.415
  295EMC      C 3428   3.182   1.259   3.507
  295EMC      O 3429   3.223   1.336   3.592
  295EMC      O 3430   3.053   1.224   3.488
  295EMC      C 3431   2.962   1.286   3.579
  295EMC      H 3432   3.398   1.331   3.236
  295EMC      H 3433   3.541   1.359   3.339
  295EMC      H 3434   3.384   1.431   3.380
  295EMC      H 3435   3.449   1.131   3.378
  295EMC      H 3436   3.433   1.229   3.525
  295EMC      H 3437   2.985   1.258   3.683
  295EMC      H 3438   2.861   1.251   3.556
  295EMC      H 3439   2.964   1.395   3.568
  296EMC      C 3440   2.232   1.952   2.609
  296EMC      C 3441   2.117   1.932   2.513
  296EMC      O 3442   1.992   1.956   2.577
  296EMC      C 3443   1.939   1.849   2.643
  296EMC      O 3444   1.987   1.738   2.650
  296EMC      O 3445   1.821   1.889   2.698
  296EMC      C 3446   1.754   1.785   2.770
  296EMC      H 3447   2.228   2.053   2.653
  296EMC      H 3448   2.328   1.940   2.558
  296EMC      H 3449   2.227   1.882   2.691
  296EMC      H 3450   2.124   2.005   2.430
  296EMC      H 3451   2.120   1.832   2.467
  296EMC      H 3452   1.728   1.702   2.703
  296EMC      H 3453   1.661   1.827   2.811
  296EMC      H 3454   1.815   1.750   2.854
  297EMC      C 3455   0.668   2.717   1.317
  297EMC      C 3456   0.727   2.631   1.427
  297EMC      O 3457   0.766   2.712   1.538
  297EMC      C 3458   0.891   2.764   1.531
  297EMC      O 3459   0.971   2.748   1.440
  297EMC      O 3460   0.913   2.837   1.643
  297EMC      C 3461   1.042   2.898   1.648
  297EMC      H 3462   0.584   2.777   1.355
  297EMC      H 3463   0.632   2.655   1.234
  297EMC      H 3464   0.742   2.787   1.278
  297EMC      H 3465   0.650   2.561   1.464
  297EMC      H 3466   0.810   2.570   1.390
  297EMC      H 3467   1.121   2.821   1.648
  297EMC      H 3468   1.049   2.954   1.742
  297EMC      H 3469   1.055   2.968   1.565
  298EMC      C 3470   1.136   1.427   2.804
  298EMC      C 3471   1.221   1.548   2.772
  298EMC      O 3472   1.181   1.661   2.850
  298EMC      C 3473   1.079   1.734   2.796
  298EMC      O 3474   1.023   1.713   2.691
  298EMC      O 3475   1.053   1.836   2.882
  298EMC      C 3476   0.948   1.923   2.838
  298EMC      H 3477   1.140   1.405   2.912
  298EMC      H 3478   1.171   1.339   2.749
  298EMC      H 3479   1.032   1.444   2.779
  298EMC      H 3480   1.327   1.527   2.798
  298EMC      H 3481   1.220   1.570   2.664
  298EMC      H 3482   0.974   1.971   2.742
  298EMC      H 3483   0.935   2.001   2.913
  298EMC      H 3484   0.854   1.867   2.829
  299EMC      C 3485   1.255   3.201   1.886
  299EMC      C 3486   1.106   3.192   1.908
  299EMC      O 3487   1.062   3.294   1.998
  299EMC      C 3488   1.070   3.262   2.130
  299EMC      O 3489   1.110   3.158   2.176
  299EMC      O 3490   1.025   3.369   2.200
  299EMC      C 3491   1.027   3.349   2.342
  299EMC      H 3492   1.282   3.302   1.849
  299EMC      H 3493   1.289   3.127   1.812
  299EMC      H 3494   1.310   3.185   1.978
  299EMC      H 3495   1.053   3.208   1.812
  299EMC      H 3496   1.077   3.091   1.942
  299EMC      H 3497   0.963   3.265   2.371
  299EMC      H 3498   0.989   3.440   2.389
  299EMC      H 3499   1.130   3.333   2.376
  300EMC      C 3500   0.866   0.434   2.067
  300EMC      C 3501   0.812   0.293   2.059
  300EMC      O 3502   0.736   0.275   1.940
  300EMC      C 3503   0.605   0.310   1.949
  300EMC      O 3504   0.549   0.354   2.047
  300EMC      O 3505   0.547   0.287   1.829
  300EMC      C 3506   0.408   0.320   1.824
  300EMC      H 3507   0.925   0.457   1.977
  300EMC      H 3508   0.930   0.447   2.155
  300EMC      H 3509   0.786   0.507   2.072
  300EMC      H 3510   0.896   0.221   2.055
  300EMC      H 3511   0.754   0.267   2.149
  300EMC      H 3512   0.351   0.259   1.896
  300EMC      H 3513   0.372   0.297   1.723
  300EMC      H 3514   0.393   0.426   1.843
  301EMC      C 3515   1.176   1.739   1.728
  301EMC      C 3516   1.304   1.770   1.803
  301EMC      O 3517   1.333   1.909   1.798
  301EMC      C 3518   1.403   1.950   1.689
  301EMC      O 3519   1.442   1.880   1.598
  301EMC      O 3520   1.421   2.084   1.699
  301EMC      C 3521   1.494   2.141   1.590
  301EMC      H 3522   1.093   1.798   1.767
  301EMC      H 3523   1.151   1.632   1.737
  301EMC      H 3524   1.186   1.763   1.622
  301EMC      H 3525   1.291   1.743   1.909
  301EMC      H 3526   1.388   1.709   1.766
  301EMC      H 3527   1.596   2.098   1.585
  301EMC      H 3528   1.504   2.248   1.608
  301EMC      H 3529   1.441   2.126   1.496
  302EMC      C 3530   2.277   1.048   2.586
  302EMC      C 3531   2.229   0.944   2.487
  302EMC      O 3532   2.264   0.813   2.531
  302EMC      C 3533   2.388   0.770   2.496
  302EMC      O 3534   2.470   0.833   2.431
  302EMC      O 3535   2.404   0.645   2.545
  302EMC      C 3536   2.532   0.587   2.515
  302EMC      H 3537   2.236   1.027   2.686
  302EMC      H 3538   2.245   1.149   2.555
  302EMC      H 3539   2.385   1.047   2.595
  302EMC      H 3540   2.119   0.948   2.479
  302EMC      H 3541   2.268   0.965   2.386
  302EMC      H 3542   2.546   0.578   2.407
  302EMC      H 3543   2.535   0.487   2.559
  302EMC      H 3544   2.612   0.647   2.560
  303EMC      C 3545   3.119   1.888   2.588
  303EMC      C 3546   3.125   1.853   2.441
  303EMC      O 3547   3.205   1.736   2.420
  303EMC      C 3548   3.338   1.760   2.406
  303EMC      O 3549   3.393   1.868   2.410
  303EMC      O 3550   3.400   1.640   2.388
  303EMC      C 3551   3.541   1.650   2.371
  303EMC      H 3552   3.082   1.802   2.646
  303EMC      H 3553   3.052   1.973   2.605
  303EMC      H 3554   3.217   1.913   2.627
  303EMC      H 3555   3.023   1.829   2.404
  303EMC      H 3556   3.160   1.938   2.381
  303EMC      H 3557   3.566   1.710   2.283
  303EMC      H 3558   3.581   1.549   2.357
  303EMC      H 3559   3.588   1.693   2.461
  304EMC      C 3560   2.501   0.621   3.786
  304EMC      C 3561   2.521   0.768   3.757
  304EMC      O 3562   2.649   0.791   3.697
  304EMC      C 3563   2.752   0.808   3.784
  304EMC      O 3564   2.745   0.805   3.905
  304EMC      O 3565   2.864   0.828   3.711
  304EMC      C 3566   2.982   0.848   3.790
  304EMC      H 3567   2.514   0.562   3.694
  304EMC      H 3568   2.401   0.602   3.826
  304EMC      H 3569   2.575   0.584   3.857
  304EMC      H 3570   2.445   0.802   3.685
  304EMC      H 3571   2.507   0.829   3.848
  304EMC      H 3572   2.971   0.937   3.853
  304EMC      H 3573   3.066   0.863   3.722
  304EMC      H 3574   3.002   0.759   3.851
  305EMC      C 3575   1.845   1.745   3.270
  305EMC      C 3576   1.769   1.821   3.164
  305EMC      O 3577   1.845   1.934   3.119
  305EMC      C 3578   1.830   2.047   3.193
  305EMC      O 3579   1.760   2.060   3.291
  305EMC      O 3580   1.908   2.143   3.137
  305EMC      C 3581   1.902   2.269   3.205
  305EMC      H 3582   1.944   1.714   3.231
  305EMC      H 3583   1.790   1.655   3.300
  305EMC      H 3584   1.863   1.806   3.358
  305EMC      H 3585   1.752   1.757   3.076
  305EMC      H 3586   1.669   1.851   3.200
  305EMC      H 3587   1.800   2.309   3.203
  305EMC      H 3588   1.968   2.338   3.152
  305EMC      H 3589   1.938   2.259   3.307
  306EMC      C 3590   1.188   1.759   2.320
  306EMC      C 3591   1.068   1.810   2.397
  306EMC      O 3592   0.956   1.724   2.379
  306EMC      C 3593   0.879   1.750   2.270
  306EMC      O 3594   0.897   1.838   2.189
  306EMC      O 3595   0.778   1.660   2.268
  306EMC      C 3596   0.689   1.676   2.158
  306EMC      H 3597   1.211   1.656   2.349
  306EMC      H 3598   1.276   1.822   2.338
  306EMC      H 3599   1.168   1.758   2.213
  306EMC      H 3600   1.092   1.811   2.505
  306EMC      H 3601   1.044   1.914   2.370
  306EMC      H 3602   0.640   1.774   2.161
  306EMC      H 3603   0.611   1.599   2.165
  306EMC      H 3604   0.742   1.662   2.063
  307EMC      C 3605   3.250   2.835   3.877
  307EMC      C 3606   3.111   2.789   3.913
  307EMC      O 3607   3.041   2.744   3.797
  307EMC      C 3608   2.976   2.841   3.727
  307EMC      O 3609   2.972   2.959   3.755
  307EMC      O 3610   2.916   2.782   3.621
  307EMC      C 3611   2.843   2.873   3.538
  307EMC      H 3612   3.305   2.756   3.826
  307EMC      H 3613   3.306   2.864   3.967
  307EMC      H 3614   3.247   2.921   3.810
  307EMC      H 3615   3.117   2.703   3.982
  307EMC      H 3616   3.055   2.867   3.967
  307EMC      H 3617   2.762   2.921   3.595
  307EMC      H 3618   2.799   2.816   3.456
  307EMC      H 3619   2.910   2.948   3.496
  308EMC      C 3620   3.305   0.279   3.873
  308EMC      C 3621   3.417   0.286   3.772
  308EMC      O 3622   3.367   0.323   3.643
  308EMC      C 3623   3.323   0.219   3.567
  308EMC      O 3624   3.323   0.101   3.598
  308EMC      O 3625   3.278   0.270   3.449
  308EMC      C 3626   3.229   0.171   3.358
  308EMC      H 3627   3.250   0.374   3.876
  308EMC      H 3628   3.344   0.257   3.973
  308EMC      H 3629   3.233   0.202   3.847
  308EMC      H 3630   3.488   0.365   3.801
  308EMC      H 3631   3.474   0.193   3.768
  308EMC      H 3632   3.309   0.100   3.331
  308EMC      H 3633   3.196   0.222   3.267
  308EMC      H 3634   3.144   0.119   3.401
  309EMC      C 3635   1.779   1.537   2.453
  309EMC      C 3636   1.659   1.520   2.363
  309EMC      O 3637   1.655   1.388   2.309
  309EMC      C 3638   1.726   1.370   2.194
  309EMC      O 3639   1.790   1.455   2.136
  309EMC      O 3640   1.712   1.241   2.156
  309EMC      C 3641   1.782   1.208   2.036
  309EMC      H 3642   1.780   1.460   2.532
  309EMC      H 3643   1.779   1.636   2.500
  309EMC      H 3644   1.872   1.525   2.397
  309EMC      H 3645   1.567   1.533   2.422
  309EMC      H 3646   1.656   1.596   2.285
  309EMC      H 3647   1.744   1.268   1.951
  309EMC      H 3648   1.764   1.103   2.014
  309EMC      H 3649   1.889   1.223   2.048
  310EMC      C 3650   2.590   2.006   1.605
  310EMC      C 3651   2.591   2.135   1.683
  310EMC      O 3652   2.458   2.185   1.701
  310EMC      C 3653   2.411   2.262   1.599
  310EMC      O 3654   2.471   2.292   1.498
  310EMC      O 3655   2.285   2.300   1.631
  310EMC      C 3656   2.223   2.383   1.532
  310EMC      H 3657   2.526   1.932   1.655
  310EMC      H 3658   2.692   1.964   1.597
  310EMC      H 3659   2.551   2.020   1.505
  310EMC      H 3660   2.632   2.118   1.784
  310EMC      H 3661   2.657   2.210   1.636
  310EMC      H 3662   2.280   2.476   1.518
  310EMC      H 3663   2.123   2.408   1.567
  310EMC      H 3664   2.214   2.329   1.437
  311EMC      C 3665   2.183   1.841   3.201
  311EMC      C 3666   2.205   1.766   3.330
  311EMC      O 3667   2.177   1.850   3.443
  311EMC      C 3668   2.282   1.926   3.485
  311EMC      O 3669   2.393   1.929   3.437
  311EMC      O 3670   2.239   2.000   3.591
  311EMC      C 3671   2.340   2.085   3.647
  311EMC      H 3672   2.081   1.882   3.197
  311EMC      H 3673   2.198   1.775   3.115
  311EMC      H 3674   2.251   1.926   3.192
  311EMC      H 3675   2.134   1.681   3.336
  311EMC      H 3676   2.306   1.723   3.335
  311EMC      H 3677   2.425   2.026   3.684
  311EMC      H 3678   2.296   2.139   3.731
  311EMC      H 3679   2.373   2.158   3.573
  312EMC      C 3680   2.338   3.545   0.468
  312EMC      C 3681   2.376   3.627   0.347
  312EMC      O 3682   2.499   3.581   0.291
  312EMC      C 3683   2.611   3.636   0.346
  312EMC      O 3684   2.614   3.719   0.435
  312EMC      O 3685   2.719   3.583   0.283
  312EMC      C 3686   2.844   3.632   0.330
  312EMC      H 3687   2.334   3.438   0.443
  312EMC      H 3688   2.240   3.575   0.507
  312EMC      H 3689   2.412   3.555   0.547
  312EMC      H 3690   2.299   3.614   0.268
  312EMC      H 3691   2.378   3.734   0.370
  312EMC      H 3692   2.851   3.741   0.315
  312EMC      H 3693   2.923   3.584   0.273
  312EMC      H 3694   2.857   3.608   0.436
  313EMC      C 3695   3.292   1.953   1.241
  313EMC      C 3696   3.281   1.864   1.120
  313EMC      O 3697   3.410   1.812   1.084
  313EMC      C 3698   3.484   1.892   1.003
  313EMC      O 3699   3.451   2.000   0.959
  313EMC      O 3700   3.602   1.828   0.979
  313EMC      C 3701   3.690   1.901   0.894
  313EMC      H 3702   3.338   1.899   1.325
  313EMC      H 3703   3.192   1.988   1.272
  313EMC      H 3704   3.354   2.040   1.221
  313EMC      H 3705   3.217   1.777   1.143
  313EMC      H 3706   3.234   1.916   1.035
  313EMC      H 3707   3.645   1.917   0.795
  313EMC      H 3708   3.781   1.842   0.882
  313EMC      H 3709   3.718   1.997   0.940
  314EMC      C 3710   3.419   2.721   0.870
  314EMC      C 3711   3.307   2.657   0.949
  314EMC      O 3712   3.360   2.570   1.050
  314EMC      C 3713   3.387   2.444   1.009
  314EMC      O 3714   3.369   2.399   0.897
  314EMC      O 3715   3.436   2.375   1.115
  314EMC      C 3716   3.468   2.239   1.086
  314EMC      H 3717   3.488   2.775   0.937
  314EMC      H 3718   3.379   2.793   0.797
  314EMC      H 3719   3.478   2.647   0.817
  314EMC      H 3720   3.249   2.735   1.001
  314EMC      H 3721   3.237   2.605   0.883
  314EMC      H 3722   3.379   2.184   1.055
  314EMC      H 3723   3.507   2.193   1.178
  314EMC      H 3724   3.546   2.233   1.010
  315EMC      C 3725   1.795   0.860   3.057
  315EMC      C 3726   1.776   1.010   3.062
  315EMC      O 3727   1.897   1.075   3.101
  315EMC      C 3728   1.915   1.087   3.235
  315EMC      O 3729   1.840   1.048   3.322
  315EMC      O 3730   2.034   1.151   3.255
  315EMC      C 3731   2.066   1.170   3.392
  315EMC      H 3732   1.879   0.834   2.991
  315EMC      H 3733   1.704   0.810   3.021
  315EMC      H 3734   1.820   0.820   3.156
  315EMC      H 3735   1.751   1.047   2.961
  315EMC      H 3736   1.692   1.037   3.127
  315EMC      H 3737   1.991   1.233   3.442
  315EMC      H 3738   2.162   1.222   3.397
  315EMC      H 3739   2.076   1.075   3.444
  316EMC      C 3740   0.993   2.198   3.884
  316EMC      C 3741   1.105   2.113   3.938
  316EMC      O 3742   1.223   2.192   3.958
  316EMC      C 3743   1.303   2.204   3.849
  316EMC      O 3744   1.284   2.155   3.739
  316EMC      O 3745   1.409   2.281   3.883
  316EMC      C 3746   1.502   2.303   3.778
  316EMC      H 3747   0.974   2.284   3.951
  316EMC      H 3748   0.900   2.140   3.875
  316EMC      H 3749   1.018   2.239   3.786
  316EMC      H 3750   1.077   2.073   4.037
  316EMC      H 3751   1.124   2.026   3.874
  316EMC      H 3752   1.545   2.207   3.744
  316EMC      H 3753   1.583   2.365   3.816
  316EMC      H 3754   1.455   2.355   3.694
  317EMC      C 3755   2.457   0.168   1.432
  317EMC      C 3756   2.543   0.287   1.398
  317EMC      O 3757   2.676   0.245   1.365
  317EMC      C 3758   2.760   0.231   1.471
  317EMC      O 3759   2.733   0.251   1.588
  317EMC      O 3760   2.881   0.191   1.424
  317EMC      C 3761   2.980   0.172   1.525
  317EMC      H 3762   2.457   0.095   1.349
  317EMC      H 3763   2.353   0.199   1.451
  317EMC      H 3764   2.494   0.116   1.520
  317EMC      H 3765   2.503   0.338   1.309
  317EMC      H 3766   2.543   0.361   1.479
  317EMC      H 3767   2.999   0.266   1.578
  317EMC      H 3768   3.072   0.140   1.476
  317EMC      H 3769   2.949   0.094   1.595
  318EMC      C 3770   2.109   2.594   0.428
  318EMC      C 3771   1.973   2.536   0.459
  318EMC      O 3772   1.983   2.396   0.485
  318EMC      C 3773   1.978   2.316   0.376
  318EMC      O 3774   1.966   2.352   0.261
  318EMC      O 3775   1.989   2.187   0.418
  318EMC      C 3776   1.985   2.091   0.313
  318EMC      H 3777   2.179   2.574   0.510
  318EMC      H 3778   2.102   2.703   0.414
  318EMC      H 3779   2.151   2.550   0.338
  318EMC      H 3780   1.932   2.583   0.550
  318EMC      H 3781   1.901   2.557   0.378
  318EMC      H 3782   1.889   2.096   0.259
  318EMC      H 3783   1.995   1.992   0.357
  318EMC      H 3784   2.069   2.106   0.244
  319EMC      C 3785   0.608   1.915   3.089
  319EMC      C 3786   0.553   2.021   2.997
  319EMC      O 3787   0.642   2.045   2.889
  319EMC      C 3788   0.740   2.137   2.913
  319EMC      O 3789   0.756   2.198   3.017
  319EMC      O 3790   0.816   2.148   2.801
  319EMC      C 3791   0.923   2.242   2.813
  319EMC      H 3792   0.630   1.823   3.034
  319EMC      H 3793   0.537   1.892   3.170
  319EMC      H 3794   0.702   1.947   3.135
  319EMC      H 3795   0.458   1.986   2.953
  319EMC      H 3796   0.529   2.113   3.052
  319EMC      H 3797   0.884   2.343   2.832
  319EMC      H 3798   0.977   2.243   2.718
  319EMC      H 3799   0.992   2.212   2.892
  320EMC      C 3800   1.354   3.773   2.579
  320EMC      C 3801   1.248   3.725   2.676
  320EMC      O 3802   1.308   3.678   2.797
  320EMC      C 3803   1.347   3.548   2.796
  320EMC      O 3804   1.336   3.470   2.704
  320EMC      O 3805   1.401   3.521   2.917
  320EMC      C 3806   1.447   3.386   2.931
  320EMC      H 3807   1.417   3.850   2.626
  320EMC      H 3808   1.308   3.814   2.488
  320EMC      H 3809   1.421   3.692   2.550
  320EMC      H 3810   1.182   3.809   2.702
  320EMC      H 3811   1.184   3.648   2.630
  320EMC      H 3812   1.363   3.315   2.920
  320EMC      H 3813   1.488   3.374   3.032
  320EMC      H 3814   1.526   3.365   2.859
  321EMC      C 3815   3.100   1.975   0.818
  321EMC      C 3816   3.091   2.122   0.851
  321EMC      O 3817   2.955   2.162   0.867
  321EMC      C 3818   2.891   2.197   0.753
  321EMC      O 3819   2.939   2.198   0.641
  321EMC      O 3820   2.764   2.231   0.785
  321EMC      C 3821   2.684   2.272   0.673
  321EMC      H 3822   3.049   1.915   0.895
  321EMC      H 3823   3.205   1.943   0.812
  321EMC      H 3824   3.052   1.952   0.724
  321EMC      H 3825   3.141   2.142   0.948
  321EMC      H 3826   3.143   2.183   0.776
  321EMC      H 3827   2.728   2.361   0.624
  321EMC      H 3828   2.585   2.297   0.709
  321EMC      H 3829   2.675   2.190   0.601
  322EMC      C 3830   1.981   2.533   1.406
  322EMC      C 3831   1.869   2.585   1.320
  322EMC      O 3832   1.747   2.517   1.349
  322EMC      C 3833   1.728   2.401   1.280
  322EMC      O 3834   1.803   2.353   1.197
  322EMC      O 3835   1.609   2.349   1.318
  322EMC      C 3836   1.575   2.226   1.253
  322EMC      H 3837   1.955   2.540   1.512
  322EMC      H 3838   2.073   2.590   1.388
  322EMC      H 3839   2.001   2.428   1.385
  322EMC      H 3840   1.851   2.692   1.343
  322EMC      H 3841   1.894   2.581   1.213
  322EMC      H 3842   1.567   2.241   1.144
  322EMC      H 3843   1.479   2.193   1.291
  322EMC      H 3844   1.650   2.149   1.275
  323EMC      C 3845   1.454   1.221   3.246
  323EMC      C 3846   1.563   1.178   3.341
  323EMC      O 3847   1.516   1.181   3.476
  323EMC      C 3848   1.527   1.301   3.539
  323EMC      O 3849   1.573   1.403   3.491
  323EMC      O 3850   1.479   1.286   3.664
  323EMC      C 3851   1.485   1.406   3.743
  323EMC      H 3852   1.364   1.158   3.259
  323EMC      H 3853   1.488   1.213   3.142
  323EMC      H 3854   1.423   1.324   3.264
  323EMC      H 3855   1.592   1.074   3.319
  323EMC      H 3856   1.654   1.238   3.328
  323EMC      H 3857   1.589   1.439   3.755
  323EMC      H 3858   1.444   1.384   3.841
  323EMC      H 3859   1.424   1.485   3.697
  324EMC      C 3860   0.855   1.671   1.069
  324EMC      C 3861   0.990   1.738   1.083
  324EMC      O 3862   1.061   1.733   0.959
  324EMC      C 3863   1.134   1.620   0.938
  324EMC      O 3864   1.143   1.525   1.013
  324EMC      O 3865   1.194   1.632   0.817
  324EMC      C 3866   1.275   1.519   0.782
  324EMC      H 3867   0.797   1.718   0.988
  324EMC      H 3868   0.797   1.680   1.162
  324EMC      H 3869   0.865   1.566   1.044
  324EMC      H 3870   0.977   1.844   1.109
  324EMC      H 3871   1.048   1.693   1.165
  324EMC      H 3872   1.356   1.505   0.854
  324EMC      H 3873   1.319   1.538   0.684
  324EMC      H 3874   1.214   1.429   0.775
  325EMC      C 3875   2.926   1.030   3.289
  325EMC      C 3876   2.901   0.909   3.375
  325EMC      O 3877   2.766   0.909   3.424
  325EMC      C 3878   2.746   0.978   3.539
  325EMC      O 3879   2.831   1.038   3.602
  325EMC      O 3880   2.615   0.968   3.571
  325EMC      C 3881   2.579   1.037   3.691
  325EMC      H 3882   2.854   1.035   3.206
  325EMC      H 3883   3.028   1.027   3.246
  325EMC      H 3884   2.915   1.122   3.346
  325EMC      H 3885   2.913   0.817   3.315
  325EMC      H 3886   2.974   0.902   3.457
  325EMC      H 3887   2.633   0.995   3.777
  325EMC      H 3888   2.472   1.023   3.707
  325EMC      H 3889   2.599   1.144   3.681
  326EMC      C 3890   1.338   0.529   3.386
  326EMC      C 3891   1.401   0.467   3.509
  326EMC      O 3892   1.318   0.488   3.624
  326EMC      C 3893   1.339   0.605   3.689
  326EMC      O 3894   1.420   0.691   3.659
  326EMC      O 3895   1.254   0.610   3.795
  326EMC      C 3896   1.265   0.729   3.873
  326EMC      H 3897   1.237   0.490   3.371
  326EMC      H 3898   1.398   0.508   3.297
  326EMC      H 3899   1.329   0.637   3.397
  326EMC      H 3900   1.409   0.358   3.495
  326EMC      H 3901   1.503   0.504   3.525
  326EMC      H 3902   1.366   0.737   3.917
  326EMC      H 3903   1.193   0.722   3.955
  326EMC      H 3904   1.241   0.817   3.813
  327EMC      C 3905   2.943   3.280   1.212
  327EMC      C 3906   2.875   3.398   1.147
  327EMC      O 3907   2.912   3.408   1.010
  327EMC      C 3908   3.027   3.478   0.986
  327EMC      O 3909   3.097   3.532   1.070
  327EMC      O 3910   3.048   3.479   0.853
  327EMC      C 3911   3.166   3.550   0.813
  327EMC      H 3912   2.921   3.187   1.157
  327EMC      H 3913   2.909   3.267   1.316
  327EMC      H 3914   3.051   3.291   1.212
  327EMC      H 3915   2.765   3.383   1.149
  327EMC      H 3916   2.894   3.491   1.202
  327EMC      H 3917   3.159   3.656   0.842
  327EMC      H 3918   3.174   3.544   0.704
  327EMC      H 3919   3.255   3.504   0.857
  328EMC      C 3920   1.829   3.479   2.745
  328EMC      C 3921   1.730   3.396   2.667
  328EMC      O 3922   1.726   3.262   2.716
  328EMC      C 3923   1.818   3.178   2.663
  328EMC      O 3924   1.901   3.206   2.579
  328EMC      O 3925   1.801   3.056   2.720
  328EMC      C 3926   1.892   2.957   2.673
  328EMC      H 3927   1.805   3.476   2.853
  328EMC      H 3928   1.828   3.584   2.712
  328EMC      H 3929   1.930   3.440   2.735
  328EMC      H 3930   1.629   3.438   2.679
  328EMC      H 3931   1.752   3.399   2.559
  328EMC      H 3932   1.879   2.940   2.565
  328EMC      H 3933   1.869   2.863   2.725
  328EMC      H 3934   1.995   2.985   2.696
  329EMC      C 3935   1.146   1.670   3.557
  329EMC      C 3936   1.109   1.800   3.624
  329EMC      O 3937   1.223   1.885   3.637
  329EMC      C 3938   1.298   1.864   3.748
  329EMC      O 3939   1.276   1.783   3.836
  329EMC      O 3940   1.402   1.951   3.745
  329EMC      C 3941   1.489   1.941   3.858
  329EMC      H 3942   1.194   1.688   3.460
  329EMC      H 3943   1.058   1.607   3.541
  329EMC      H 3944   1.218   1.614   3.617
  329EMC      H 3945   1.036   1.854   3.561
  329EMC      H 3946   1.060   1.783   3.721
  329EMC      H 3947   1.435   1.963   3.951
  329EMC      H 3948   1.569   2.016   3.846
  329EMC      H 3949   1.535   1.842   3.862
  330EMC      C 3950   2.973   1.936   3.298
  330EMC      C 3951   3.079   1.887   3.202
  330EMC      O 3952   3.052   1.933   3.069
  330EMC      C 3953   2.969   1.854   2.996
  330EMC      O 3954   2.917   1.750   3.033
  330EMC      O 3955   2.954   1.911   2.874
  330EMC      C 3956   2.868   1.838   2.786
  330EMC      H 3957   2.965   2.045   3.294
  330EMC      H 3958   2.997   1.906   3.401
  330EMC      H 3959   2.875   1.896   3.272
  330EMC      H 3960   3.177   1.928   3.231
  330EMC      H 3961   3.090   1.777   3.206
  330EMC      H 3962   2.909   1.738   2.767
  330EMC      H 3963   2.863   1.892   2.691
  330EMC      H 3964   2.768   1.831   2.828
  331EMC      C 3965   0.763   2.532   2.626
  331EMC      C 3966   0.897   2.602   2.624
  331EMC      O 3967   0.909   2.689   2.737
  331EMC      C 3968   0.858   2.814   2.720
  331EMC      O 3969   0.804   2.857   2.620
  331EMC      O 3970   0.878   2.883   2.835
  331EMC      C 3971   0.829   3.017   2.832
  331EMC      H 3972   0.750   2.477   2.720
  331EMC      H 3973   0.756   2.460   2.543
  331EMC      H 3974   0.681   2.602   2.618
  331EMC      H 3975   0.978   2.528   2.631
  331EMC      H 3976   0.912   2.656   2.529
  331EMC      H 3977   0.880   3.075   2.754
  331EMC      H 3978   0.850   3.063   2.928
  331EMC      H 3979   0.721   3.018   2.816
  332EMC      C 3980   1.967   2.539   2.746
  332EMC      C 3981   2.041   2.449   2.842
  332EMC      O 3982   2.117   2.527   2.935
  332EMC      C 3983   2.242   2.561   2.893
  332EMC      O 3984   2.293   2.533   2.787
  332EMC      O 3985   2.300   2.634   2.992
  332EMC      C 3986   2.433   2.677   2.961
  332EMC      H 3987   1.904   2.611   2.801
  332EMC      H 3988   1.904   2.480   2.679
  332EMC      H 3989   2.037   2.598   2.686
  332EMC      H 3990   1.969   2.391   2.902
  332EMC      H 3991   2.104   2.376   2.789
  332EMC      H 3992   2.499   2.591   2.945
  332EMC      H 3993   2.471   2.734   3.047
  332EMC      H 3994   2.433   2.742   2.874
  333EMC      C 3995   3.511   3.278   3.157
  333EMC      C 3996   3.614   3.183   3.212
  333EMC      O 3997   3.556   3.055   3.240
  333EMC      C 3998   3.499   3.044   3.364
  333EMC      O 3999   3.495   3.130   3.449
  333EMC      O 4000   3.448   2.919   3.374
  333EMC      C 4001   3.386   2.892   3.500
  333EMC      H 4002   3.462   3.235   3.068
  333EMC      H 4003   3.557   3.374   3.129
  333EMC      H 4004   3.432   3.297   3.230
  333EMC      H 4005   3.693   3.165   3.136
  333EMC      H 4006   3.665   3.225   3.300
  333EMC      H 4007   3.458   2.902   3.582
  333EMC      H 4008   3.349   2.789   3.498
  333EMC      H 4009   3.301   2.959   3.515
  334EMC      C 4010   0.919   2.705   3.873
  334EMC      C 4011   0.964   2.584   3.952
  334EMC      O 4012   1.087   2.611   4.020
  334EMC      C 4013   1.199   2.588   3.946
  334EMC      O 4014   1.204   2.548   3.832
  334EMC      O 4015   1.306   2.618   4.024
  334EMC      C 4016   1.432   2.599   3.959
  334EMC      H 4017   0.911   2.793   3.939
  334EMC      H 4018   0.821   2.687   3.826
  334EMC      H 4019   0.991   2.730   3.795
  334EMC      H 4020   0.889   2.561   4.030
  334EMC      H 4021   0.971   2.495   3.889
  334EMC      H 4022   1.445   2.493   3.931
  334EMC      H 4023   1.511   2.625   4.030
  334EMC      H 4024   1.441   2.663   3.872
  335EMC      C 4025   2.938   2.034   1.759
  335EMC      C 4026   3.019   1.985   1.641
  335EMC      O 4027   3.038   2.089   1.545
  335EMC      C 4028   2.938   2.102   1.454
  335EMC      O 4029   2.837   2.034   1.447
  335EMC      O 4030   2.970   2.204   1.371
  335EMC      C 4031   2.873   2.229   1.269
  335EMC      H 4032   2.986   2.123   1.804
  335EMC      H 4033   2.929   1.957   1.836
  335EMC      H 4034   2.838   2.065   1.728
  335EMC      H 4035   3.120   1.954   1.675
  335EMC      H 4036   2.973   1.895   1.596
  335EMC      H 4037   2.862   2.141   1.204
  335EMC      H 4038   2.909   2.313   1.208
  335EMC      H 4039   2.777   2.257   1.313
  336EMC      C 4040   3.800   0.576   3.082
  336EMC      C 4041   3.807   0.641   3.218
  336EMC      O 4042   3.679   0.637   3.282
  336EMC      C 4043   3.595   0.739   3.251
  336EMC      O 4044   3.619   0.832   3.177
  336EMC      O 4045   3.480   0.720   3.320
  336EMC      C 4046   3.381   0.821   3.297
  336EMC      H 4047   3.763   0.473   3.090
  336EMC      H 4048   3.900   0.574   3.035
  336EMC      H 4049   3.732   0.629   3.015
  336EMC      H 4050   3.877   0.586   3.282
  336EMC      H 4051   3.845   0.744   3.211
  336EMC      H 4052   3.418   0.919   3.330
  336EMC      H 4053   3.293   0.796   3.357
  336EMC      H 4054   3.352   0.823   3.192
  337EMC      C 4055   1.352   1.676   3.257
  337EMC      C 4056   1.266   1.580   3.179
  337EMC      O 4057   1.142   1.557   3.247
  337EMC      C 4058   1.146   1.457   3.339
  337EMC      O 4059   1.241   1.388   3.368
  337EMC      O 4060   1.022   1.448   3.394
  337EMC      C 4061   1.010   1.346   3.494
  337EMC      H 4062   1.298   1.770   3.277
  337EMC      H 4063   1.445   1.700   3.203
  337EMC      H 4064   1.380   1.635   3.354
  337EMC      H 4065   1.241   1.625   3.081
  337EMC      H 4066   1.319   1.487   3.157
  337EMC      H 4067   1.031   1.247   3.451
  337EMC      H 4068   0.908   1.347   3.531
  337EMC      H 4069   1.077   1.366   3.578
  338EMC      C 4070   0.657   1.970   3.546
  338EMC      C 4071   0.506   1.973   3.533
  338EMC      O 4072   0.445   1.983   3.661
  338EMC      C 4073   0.424   1.865   3.725
  338EMC      O 4074   0.452   1.755   3.684
  338EMC      O 4075   0.365   1.893   3.845
  338EMC      C 4076   0.337   1.777   3.923
  338EMC      H 4077   0.692   2.059   3.601
  338EMC      H 4078   0.705   1.969   3.447
  338EMC      H 4079   0.690   1.883   3.602
  338EMC      H 4080   0.476   2.062   3.475
  338EMC      H 4081   0.469   1.886   3.477
  338EMC      H 4082   0.267   1.710   3.871
  338EMC      H 4083   0.290   1.809   4.016
  338EMC      H 4084   0.429   1.723   3.948
  339EMC      C 4085   1.707   2.787   1.918
  339EMC      C 4086   1.736   2.658   1.992
  339EMC      O 4087   1.834   2.581   1.922
  339EMC      C 4088   1.785   2.499   1.825
  339EMC      O 4089   1.668   2.486   1.794
  339EMC      O 4090   1.889   2.434   1.769
  339EMC      C 4091   1.852   2.343   1.665
  339EMC      H 4092   1.799   2.844   1.902
  339EMC      H 4093   1.636   2.849   1.975
  339EMC      H 4094   1.664   2.767   1.820
  339EMC      H 4095   1.778   2.681   2.091
  339EMC      H 4096   1.644   2.601   2.010
  339EMC      H 4097   1.786   2.264   1.704
  339EMC      H 4098   1.943   2.296   1.627
  339EMC      H 4099   1.804   2.396   1.583
  340EMC      C 4100   3.150   2.110   3.715
  340EMC      C 4101   3.107   2.033   3.838
  340EMC      O 4102   3.152   1.897   3.831
  340EMC      C 4103   3.068   1.812   3.765
  340EMC      O 4104   2.962   1.841   3.713
  340EMC      O 4105   3.125   1.689   3.767
  340EMC      C 4106   3.047   1.589   3.701
  340EMC      H 4107   3.259   2.104   3.702
  340EMC      H 4108   3.122   2.215   3.723
  340EMC      H 4109   3.105   2.069   3.625
  340EMC      H 4110   3.154   2.077   3.927
  340EMC      H 4111   2.999   2.039   3.853
  340EMC      H 4112   2.949   1.577   3.750
  340EMC      H 4113   3.101   1.494   3.708
  340EMC      H 4114   3.035   1.613   3.595
  341FTA      O 4115   3.068   3.864   3.070
  341FTA      S 4116   3.135   3.739   3.038
  341FTA      O 4117   3.111   3.689   2.904
  341FTA      F 4118   3.053   3.635   3.129
  341FTA      N 4119   3.282   3.729   3.094
  341FTA      S 4120   3.351   3.588   3.072
  341FTA      O 4121   3.269   3.469   3.101
  341FTA      O 4122   3.484   3.581   3.133
  341FTA      C 4123   3.381   3.590   2.890
  341FTA      F 4124   3.292   3.516   2.818
  341FTA      F 4125   3.504   3.536   2.860
  341FTA      F 4126   3.384   3.716   2.838
  342FTA      O 4127   1.501   1.350   1.461
  342FTA      S 4128   1.540   1.454   1.368
  342FTA      O 4129   1.580   1.406   1.237
  342FTA      F 4130   1.679   1.503   1.432
  342FTA      N 4131   1.450   1.583   1.374
  342FTA      S 4132   1.501   1.703   1.282
  342FTA      O 4133   1.645   1.732   1.285
  342FTA      O 4134   1.419   1.823   1.297
  342FTA      C 4135   1.462   1.638   1.113
  342FTA      F 4136   1.570   1.589   1.046
  342FTA      F 4137   1.412   1.737   1.033
  342FTA      F 4138   1.366   1.542   1.114
  343FTA      O 4139   1.531   2.548   1.378
  343FTA      S 4140   1.553   2.656   1.283
  343FTA      O 4141   1.648   2.626   1.177
  343FTA      F 4142   1.633   2.761   1.374
  343FTA      N 4143   1.422   2.734   1.243
  343FTA      S 4144   1.448   2.861   1.152
  343FTA      O 4145   1.559   2.949   1.190
  343FTA      O 4146   1.324   2.935   1.124
  343FTA      C 4147   1.493   2.782   0.991
  343FTA      F 4148   1.627   2.782   0.965
  343FTA      F 4149   1.436   2.848   0.886
  343FTA      F 4150   1.448   2.654   0.980
  344FTA      O 4151   1.371   1.078   2.524
  344FTA      S 4152   1.410   1.006   2.643
  344FTA      O 4153   1.321   0.897   2.680
  344FTA      F 4154   1.383   1.114   2.757
  344FTA      N 4155   1.566   0.979   2.653
  344FTA      S 4156   1.610   0.913   2.791
  344FTA      O 4157   1.551   0.967   2.913
  344FTA      O 4158   1.756   0.898   2.799
  344FTA      C 4159   1.546   0.740   2.770
  344FTA      F 4160   1.431   0.716   2.839
  344FTA      F 4161   1.636   0.648   2.817
  344FTA      F 4162   1.525   0.706   2.640
  345FTA      O 4163   0.726   2.750   1.751
  345FTA      S 4164   0.611   2.689   1.816
  345FTA      O 4165   0.631   2.658   1.957
  345FTA      F 4166   0.609   2.544   1.748
  345FTA      N 4167   0.473   2.752   1.774
  345FTA      S 4168   0.347   2.677   1.834
  345FTA      O 4169   0.348   2.530   1.829
  345FTA      O 4170   0.221   2.733   1.786
  345FTA      C 4171   0.356   2.726   2.012
  345FTA      F 4172   0.406   2.629   2.094
  345FTA      F 4173   0.232   2.754   2.062
  345FTA      F 4174   0.428   2.840   2.032
  346FTA      O 4175   2.459   0.217   2.904
  346FTA      S 4176   2.374   0.217   2.786
  346FTA      O 4177   2.264   0.122   2.791
  346FTA      F 4178   2.471   0.153   2.677
  346FTA      N 4179   2.343   0.361   2.728
  346FTA      S 4180   2.263   0.360   2.592
  346FTA      O 4181   2.306   0.264   2.490
  346FTA      O 4182   2.244   0.495   2.538
  346FTA      C 4183   2.094   0.307   2.649
  346FTA      F 4184   2.066   0.177   2.624
  346FTA      F 4185   1.997   0.379   2.585
  346FTA      F 4186   2.074   0.331   2.782
  347FTA      O 4187   3.562   0.599   1.129
  347FTA      S 4188   3.472   0.486   1.124
  347FTA      O 4189   3.537   0.357   1.107
  347FTA      F 4190   3.400   0.508   0.983
  347FTA      N 4191   3.353   0.493   1.228
  347FTA      S 4192   3.247   0.377   1.213
  347FTA      O 4193   3.204   0.343   1.077
  347FTA      O 4194   3.134   0.393   1.306
  347FTA      C 4195   3.342   0.232   1.278
  347FTA      F 4196   3.391   0.150   1.181
  347FTA      F 4197   3.263   0.152   1.356
  347FTA      F 4198   3.446   0.268   1.359
  348FTA      O 4199   3.291   1.037   3.192
  348FTA      S 4200   3.279   1.104   3.064
  348FTA      O 4201   3.196   1.035   2.967
  348FTA      F 4202   3.426   1.086   3.004
  348FTA      N 4203   3.262   1.261   3.074
  348FTA      S 4204   3.263   1.335   2.934
  348FTA      O 4205   3.365   1.293   2.837
  348FTA      O 4206   3.256   1.481   2.949
  348FTA      C 4207   3.098   1.286   2.865
  348FTA      F 4208   3.105   1.188   2.772
  348FTA      F 4209   3.038   1.392   2.803
  348FTA      F 4210   3.010   1.247   2.962
  349FTA      O 4211   0.676   3.786   3.607
  349FTA      S 4212   0.702   3.742   3.743
  349FTA      O 4213   0.608   3.642   3.793
  349FTA      F 4214   0.662   3.873   3.826
  349FTA      N 4215   0.855   3.722   3.777
  349FTA      S 4216   0.883   3.688   3.929
  349FTA      O 4217   0.811   3.767   4.029
  349FTA      O 4218   1.027   3.679   3.957
  349FTA      C 4219   0.820   3.514   3.941
  349FTA      F 4220   0.698   3.504   4.000
  349FTA      F 4221   0.904   3.437   4.016
  349FTA      F 4222   0.815   3.452   3.819
  350FTA      O 4223   0.844   1.184   2.924
  350FTA      S 4224   0.813   1.309   2.992
  350FTA      O 4225   0.904   1.343   3.100
  350FTA      F 4226   0.679   1.270   3.070
  350FTA      N 4227   0.767   1.425   2.895
  350FTA      S 4228   0.720   1.557   2.971
  350FTA      O 4229   0.632   1.539   3.087
  350FTA      O 4230   0.671   1.658   2.878
  350FTA      C 4231   0.881   1.623   3.034
  350FTA      F 4232   0.902   1.599   3.166
  350FTA      F 4233   0.886   1.759   3.020
  350FTA      F 4234   0.988   1.576   2.964
  351FTA      O 4235   2.430   0.634   3.332
  351FTA      S 4236   2.442   0.777   3.351
  351FTA      O 4237   2.565   0.819   3.417
  351FTA      F 4238   2.332   0.804   3.464
  351FTA      N 4239   2.392   0.863   3.229
  351FTA      S 4240   2.392   1.020   3.256
  351FTA      O 4241   2.340   1.065   3.385
  351FTA      O 4242   2.337   1.095   3.143
  351FTA      C 4243   2.574   1.057   3.254
  351FTA      F 4244   2.628   1.073   3.378
  351FTA      F 4245   2.599   1.174   3.188
  351FTA      F 4246   2.646   0.963   3.187
  352FTA      O 4247   3.519   3.370   0.770
  352FTA      S 4248   3.399   3.301   0.728
  352FTA      O 4249   3.422   3.185   0.643
  352FTA      F 4250   3.336   3.407   0.626
  352FTA      N 4251   3.289   3.287   0.841
  352FTA      S 4252   3.152   3.225   0.790
  352FTA      O 4253   3.100   3.274   0.663
  352FTA      O 4254   3.051   3.222   0.896
  352FTA      C 4255   3.200   3.047   0.765
  352FTA      F 4256   3.221   3.014   0.635
  352FTA      F 4257   3.101   2.963   0.809
  352FTA      F 4258   3.311   3.012   0.836
  353FTA      O 4259   0.554   1.473   1.983
  353FTA      S 4260   0.525   1.337   1.940
  353FTA      O 4261   0.517   1.240   2.048
  353FTA      F 4262   0.662   1.298   1.867
  353FTA      N 4263   0.418   1.327   1.825
  353FTA      S 4264   0.397   1.180   1.769
  353FTA      O 4265   0.518   1.101   1.743
  353FTA      O 4266   0.303   1.177   1.657
  353FTA      C 4267   0.308   1.099   1.909
  353FTA      F 4268   0.387   1.019   1.986
  353FTA      F 4269   0.208   1.018   1.863
  353FTA      F 4270   0.246   1.189   1.991
  354FTA      O 4271   2.232   3.628   1.681
  354FTA      S 4272   2.225   3.676   1.817
  354FTA      O 4273   2.311   3.790   1.846
  354FTA      F 4274   2.296   3.557   1.897
  354FTA      N 4275   2.079   3.680   1.877
  354FTA      S 4276   2.073   3.719   2.030
  354FTA      O 4277   2.171   3.656   2.119
  354FTA      O 4278   1.936   3.712   2.083
  354FTA      C 4279   2.113   3.900   2.023
  354FTA      F 4280   2.241   3.929   2.059
  354FTA      F 4281   2.034   3.971   2.110
  354FTA      F 4282   2.089   3.955   1.901
  355FTA      O 4283   3.698   3.243   1.214
  355FTA      S 4284   3.709   3.361   1.131
  355FTA      O 4285   3.841   3.381   1.072
  355FTA      F 4286   3.703   3.477   1.241
  355FTA      N 4287   3.583   3.389   1.040
  355FTA      S 4288   3.590   3.526   0.960
  355FTA      O 4289   3.636   3.644   1.035
  355FTA      O 4290   3.468   3.551   0.884
  355FTA      C 4291   3.719   3.488   0.833
  355FTA      F 4292   3.842   3.541   0.861
  355FTA      F 4293   3.685   3.540   0.711
  355FTA      F 4294   3.735   3.354   0.812
  356FTA      O 4295   3.081   1.656   1.754
  356FTA      S 4296   3.140   1.576   1.648
  356FTA      O 4297   3.142   1.433   1.672
  356FTA      F 4298   3.295   1.616   1.661
  356FTA      N 4299   3.103   1.625   1.502
  356FTA      S 4300   3.179   1.547   1.386
  356FTA      O 4301   3.323   1.524   1.405
  356FTA      O 4302   3.147   1.601   1.254
  356FTA      C 4303   3.096   1.382   1.392
  356FTA      F 4304   3.170   1.285   1.455
  356FTA      F 4305   3.073   1.334   1.266
  356FTA      F 4306   2.973   1.386   1.451
  357FTA      O 4307   2.618   1.541   0.980
  357FTA      S 4308   2.565   1.560   0.846
  357FTA      O 4309   2.522   1.438   0.780
  357FTA      F 4310   2.698   1.599   0.765
  357FTA      N 4311   2.473   1.687   0.831
  357FTA      S 4312   2.427   1.716   0.681
  357FTA      O 4313   2.530   1.704   0.577
  357FTA      O 4314   2.349   1.839   0.670
  357FTA      C 4315   2.305   1.579   0.653
  357FTA      F 4316   2.354   1.476   0.580
  357FTA      F 4317   2.196   1.625   0.585
  357FTA      F 4318   2.255   1.529   0.770
  358FTA      O 4319   3.210   1.061   0.999
  358FTA      S 4320   3.103   0.984   0.938
  358FTA      O 4321   3.050   1.041   0.815
  358FTA      F 4322   2.983   1.008   1.042
  358FTA      N 4323   3.124   0.828   0.942
  358FTA      S 4324   3.001   0.744   0.889
  358FTA      O 4325   2.868   0.786   0.933
  358FTA      O 4326   3.022   0.600   0.903
  358FTA      C 4327   3.011   0.777   0.707
  358FTA      F 4328   2.920   0.868   0.662
  358FTA      F 4329   2.985   0.663   0.635
  358FTA      F 4330   3.135   0.816   0.667
  359FTA      O 4331   2.184   1.549   1.352
  359FTA      S 4332   2.136   1.609   1.475
  359FTA      O 4333   2.050   1.523   1.555
  359FTA      F 4334   2.034   1.719   1.420
  359FTA      N 4335   2.244   1.694   1.552
  359FTA      S 4336   2.188   1.771   1.679
  359FTA      O 4337   2.060   1.840   1.663
  359FTA      O 4338   2.290   1.856   1.742
  359FTA      C 4339   2.161   1.632   1.798
  359FTA      F 4340   2.031   1.594   1.809
  359FTA      F 4341   2.200   1.667   1.924
  359FTA      F 4342   2.236   1.522   1.767
  360FTA      O 4343   0.416   3.666   2.783
  360FTA      S 4344   0.504   3.655   2.668
  360FTA      O 4345   0.459   3.727   2.550
  360FTA      F 4346   0.484   3.502   2.626
  360FTA      N 4347   0.658   3.663   2.703
  360FTA      S 4348   0.754   3.637   2.580
  360FTA      O 4349   0.721   3.525   2.492
  360FTA      O 4350   0.895   3.638   2.619
  360FTA      C 4351   0.731   3.793   2.482
  360FTA      F 4352   0.650   3.778   2.374
  360FTA      F 4353   0.850   3.837   2.432
  360FTA      F 4354   0.684   3.896   2.557
  361FTA      O 4355   1.659   0.907   2.209
  361FTA      S 4356   1.542   0.927   2.126
  361FTA      O 4357   1.461   0.808   2.105
  361FTA      F 4358   1.608   0.951   1.982
  361FTA      N 4359   1.465   1.062   2.154
  361FTA      S 4360   1.346   1.091   2.053
  361FTA      O 4361   1.371   1.066   1.911
  361FTA      O 4362   1.283   1.221   2.077
  361FTA      C 4363   1.220   0.966   2.109
  361FTA      F 4364   1.213   0.856   2.029
  361FTA      F 4365   1.094   1.020   2.109
  361FTA      F 4366   1.241   0.924   2.237
  362FTA      O 4367   1.042   3.686   3.193
  362FTA      S 4368   0.988   3.690   3.327
  362FTA      O 4369   0.907   3.574   3.364
  362FTA      F 4370   0.878   3.806   3.314
  362FTA      N 4371   1.088   3.746   3.436
  362FTA      S 4372   1.024   3.764   3.580
  362FTA      O 4373   0.891   3.825   3.586
  362FTA      O 4374   1.118   3.824   3.674
  362FTA      C 4375   1.007   3.588   3.635
  362FTA      F 4376   0.880   3.540   3.625
  362FTA      F 4377   1.041   3.574   3.766
  362FTA      F 4378   1.090   3.503   3.567
  363FTA      O 4379   2.098   0.585   1.743
  363FTA      S 4380   2.176   0.590   1.621
  363FTA      O 4381   2.125   0.680   1.519
  363FTA      F 4382   2.148   0.446   1.558
  363FTA      N 4383   2.332   0.589   1.645
  363FTA      S 4384   2.418   0.581   1.512
  363FTA      O 4385   2.374   0.484   1.411
  363FTA      O 4386   2.562   0.572   1.540
  363FTA      C 4387   2.393   0.750   1.441
  363FTA      F 4388   2.303   0.754   1.339
  363FTA      F 4389   2.510   0.799   1.389
  363FTA      F 4390   2.356   0.842   1.535
  364FTA      O 4391   3.585   0.486   0.306
  364FTA      S 4392   3.695   0.543   0.381
  364FTA      O 4393   3.826   0.486   0.350
  364FTA      F 4394   3.666   0.487   0.528
  364FTA      N 4395   3.687   0.700   0.398
  364FTA      S 4396   3.800   0.760   0.493
  364FTA      O 4397   3.828   0.688   0.617
  364FTA      O 4398   3.783   0.904   0.512
  364FTA      C 4399   3.950   0.743   0.385
  364FTA      F 4400   4.030   0.639   0.419
  364FTA      F 4401   4.029   0.854   0.395
  364FTA      F 4402   3.919   0.733   0.253
  365FTA      O 4403   3.047   2.853   2.859
  365FTA      S 4404   3.146   2.885   2.960
  365FTA      O 4405   3.156   2.788   3.068
  365FTA      F 4406   3.079   3.011   3.031
  365FTA      N 4407   3.281   2.943   2.902
  365FTA      S 4408   3.384   2.991   3.013
  365FTA      O 4409   3.329   3.069   3.124
  365FTA      O 4410   3.504   3.052   2.955
  365FTA      C 4411   3.441   2.829   3.083
  365FTA      F 4412   3.383   2.797   3.202
  365FTA      F 4413   3.575   2.831   3.107
  365FTA      F 4414   3.422   2.725   2.997
  366FTA      O 4415   3.642   0.895   2.836
  366FTA      S 4416   3.539   0.793   2.822
  366FTA      O 4417   3.404   0.845   2.807
  366FTA      F 4418   3.536   0.731   2.970
  366FTA      N 4419   3.580   0.671   2.731
  366FTA      S 4420   3.473   0.554   2.728
  366FTA      O 4421   3.415   0.514   2.856
  366FTA      O 4422   3.520   0.440   2.649
  366FTA      C 4423   3.338   0.630   2.627
  366FTA      F 4424   3.233   0.674   2.701
  366FTA      F 4425   3.285   0.539   2.539
  366FTA      F 4426   3.382   0.733   2.549
  367FTA      O 4427   0.832   3.106   0.895
  367FTA      S 4428   0.881   3.007   0.801
  367FTA      O 4429   0.980   3.056   0.706
  367FTA      F 4430   0.751   2.985   0.709
  367FTA      N 4431   0.906   2.864   0.864
  367FTA      S 4432   0.944   2.752   0.758
  367FTA      O 4433   0.867   2.749   0.634
  367FTA      O 4434   0.958   2.620   0.820
  367FTA      C 4435   1.117   2.803   0.713
  367FTA      F 4436   1.126   2.867   0.594
  367FTA      F 4437   1.199   2.693   0.702
  367FTA      F 4438   1.176   2.881   0.809
  368FTA      O 4439   1.559   3.531   3.250
  368FTA      S 4440   1.524   3.395   3.288
  368FTA      O 4441   1.386   3.358   3.260
  368FTA      F 4442   1.526   3.405   3.448
  368FTA      N 4443   1.636   3.289   3.256
  368FTA      S 4444   1.603   3.143   3.310
  368FTA      O 4445   1.550   3.133   3.446
  368FTA      O 4446   1.713   3.050   3.286
  368FTA      C 4447   1.469   3.090   3.194
  368FTA      F 4448   1.344   3.098   3.248
  368FTA      F 4449   1.485   2.959   3.158
  368FTA      F 4450   1.470   3.160   3.077
  369FTA      O 4451   1.542   2.276   2.011
  369FTA      S 4452   1.475   2.232   2.133
  369FTA      O 4453   1.457   2.336   2.233
  369FTA      F 4454   1.587   2.139   2.198
  369FTA      N 4455   1.354   2.134   2.108
  369FTA      S 4456   1.291   2.075   2.241
  369FTA      O 4457   1.384   2.029   2.345
  369FTA      O 4458   1.185   1.978   2.213
  369FTA      C 4459   1.203   2.224   2.309
  369FTA      F 4460   1.269   2.285   2.411
  369FTA      F 4461   1.081   2.189   2.360
  369FTA      F 4462   1.176   2.317   2.213
  370FTA      O 4463   0.266   2.858   3.068
  370FTA      S 4464   0.305   2.918   2.942
  370FTA      O 4465   0.196   2.943   2.850
  370FTA      F 4466   0.384   2.798   2.872
  370FTA      N 4467   0.416   3.031   2.956
  370FTA      S 4468   0.469   3.086   2.817
  370FTA      O 4469   0.498   2.988   2.713
  370FTA      O 4470   0.576   3.184   2.835
  370FTA      C 4471   0.323   3.186   2.759
  370FTA      F 4472   0.249   3.123   2.664
  370FTA      F 4473   0.364   3.304   2.703
  370FTA      F 4474   0.240   3.222   2.861
  371FTA      O 4475   2.611   3.315   3.388
  371FTA      S 4476   2.550   3.437   3.340
  371FTA      O 4477   2.405   3.440   3.349
  371FTA      F 4478   2.575   3.425   3.182
  371FTA      N 4479   2.628   3.568   3.379
  371FTA      S 4480   2.569   3.701   3.314
  371FTA      O 4481   2.533   3.695   3.172
  371FTA      O 4482   2.650   3.818   3.347
  371FTA      C 4483   2.412   3.722   3.410
  371FTA      F 4484   2.301   3.683   3.342
  371FTA      F 4485   2.392   3.853   3.442
  371FTA      F 4486   2.414   3.657   3.530
  372FTA      O 4487   1.073   1.972   0.229
  372FTA      S 4488   1.131   2.087   0.297
  372FTA      O 4489   1.051   2.208   0.291
  372FTA      F 4490   1.254   2.122   0.199
  372FTA      N 4491   1.202   2.053   0.434
  372FTA      S 4492   1.278   2.175   0.500
  372FTA      O 4493   1.359   2.259   0.411
  372FTA      O 4494   1.348   2.137   0.622
  372FTA      C 4495   1.135   2.280   0.557
  372FTA      F 4496   1.110   2.386   0.477
  372FTA      F 4497   1.160   2.332   0.681
  372FTA      F 4498   1.020   2.208   0.572
  373FTA      O 4499   2.747   1.340   2.919
  373FTA      S 4500   2.810   1.396   3.036
  373FTA      O 4501   2.790   1.320   3.159
  373FTA      F 4502   2.719   1.526   3.061
  373FTA      N 4503   2.954   1.455   3.011
  373FTA      S 4504   3.016   1.530   3.136
  373FTA      O 4505   2.928   1.621   3.210
  373FTA      O 4506   3.146   1.590   3.105
  373FTA      C 4507   3.055   1.387   3.248
  373FTA      F 4508   2.966   1.371   3.349
  373FTA      F 4509   3.176   1.405   3.309
  373FTA      F 4510   3.066   1.269   3.181
  374FTA      O 4511   1.523   3.361   1.720
  374FTA      S 4512   1.464   3.494   1.722
  374FTA      O 4513   1.346   3.509   1.639
  374FTA      F 4514   1.575   3.577   1.642
  374FTA      N 4515   1.463   3.561   1.865
  374FTA      S 4516   1.413   3.712   1.864
  374FTA      O 4517   1.465   3.799   1.758
  374FTA      O 4518   1.421   3.773   1.997
  374FTA      C 4519   1.232   3.690   1.832
  374FTA      F 4520   1.195   3.716   1.704
  374FTA      F 4521   1.158   3.776   1.909
  374FTA      F 4522   1.187   3.566   1.865
  375LI      Li 4523   3.183   2.974   2.048
  376LI      Li 4524   1.558   0.811   3.831
  377LI      Li 4525   2.255   2.881   2.314
  378LI      Li 4526   0.172   1.494   3.852
  379LI      Li 4527   4.025   1.918   0.897
  380LI      Li 4528   1.744   2.748   2.865
  381LI      Li 4529   2.463   2.030   0.685
  382LI      Li 4530   1.610   0.841   1.198
  383LI      Li 4531   3.117   0.173   2.858
  384LI      Li 4532   3.578   0.814   3.529
  385LI      Li 4533   0.444   1.851   0.450
  386LI      Li 4534   1.858   3.621   3.602
  387LI      Li 4535   0.228   1.663   1.070
  388LI      Li 4536   2.719   0.652   1.671
  389LI      Li 4537   1.975   2.582   3.132
  390LI      Li 4538   3.003   2.386   0.769
  391LI      Li 4539   0.948   2.887   2.339
  392LI      Li 4540   0.129   1.663   3.010
  393LI      Li 4541   2.950   2.578   0.295
  394LI      Li 4542   0.978   0.344   1.178
  395LI      Li 4543   2.318   0.326   1.628
  396LI      Li 4544   1.915   1.676   1.640
  397LI      Li 4545   2.934   0.603   3.564
  398LI      Li 4546   2.377   0.572   2.265
  399LI      Li 4547   3.551   1.256   1.884
  400LI      Li 4548   1.613   2.624   1.571
  401LI      Li 4549   0.606   3.201   2.258
  402LI      Li 4550   3.833   2.026   0.100
  403LI      Li 4551   2.361   3.523   1.453
  404LI      Li 4552   2.041   3.223   3.034
  405LI      Li 4553   2.225   1.011   1.407
  406LI      Li 4554   2.707   1.336   0.851
  407LI      Li 4555   2.313   0.899   0.721
  408LI      Li 4556   0.250   0.342   3.407
   4.13000   4.13000   4.13000
