A Gromacs structure file written by ASE
 4862
    1EMC      C    1   3.226   0.305   1.442
    1EMC      C    2   3.180   0.172   1.497
    1EMC      O    3   3.114   0.190   1.622
    1EMC      C    4   3.195   0.191   1.731
    1EMC      O    5   3.316   0.178   1.731
    1EMC      O    6   3.118   0.209   1.841
    1EMC      C    7   3.191   0.212   1.963
    1EMC      H    8   3.142   0.375   1.433
    1EMC      H    9   3.271   0.292   1.342
    1EMC      H   10   3.300   0.351   1.507
    1EMC      H   11   3.106   0.127   1.428
    1EMC      H   12   3.263   0.100   1.504
    1EMC      H   13   3.244   0.117   1.980
    1EMC      H   14   3.120   0.227   2.045
    1EMC      H   15   3.261   0.296   1.964
    2EMC      C   16   1.589   2.574   3.913
    2EMC      C   17   1.540   2.717   3.901
    2EMC      O   18   1.628   2.793   3.818
    2EMC      C   19   1.734   2.849   3.882
    2EMC      O   20   1.760   2.840   4.000
    2EMC      O   21   1.807   2.917   3.790
    2EMC      C   22   1.922   2.981   3.843
    2EMC      H   23   1.599   2.529   3.814
    2EMC      H   24   1.518   2.514   3.972
    2EMC      H   25   1.686   2.570   3.961
    2EMC      H   26   1.441   2.718   3.853
    2EMC      H   27   1.527   2.763   4.000
    2EMC      H   28   1.894   3.056   3.919
    2EMC      H   29   1.973   3.033   3.761
    2EMC      H   30   1.991   2.908   3.885
    3EMC      C   31   0.217   0.526   2.989
    3EMC      C   32   0.342   0.539   3.072
    3EMC      O   33   0.359   0.674   3.117
    3EMC      C   34   0.424   0.756   3.031
    3EMC      O   35   0.468   0.726   2.921
    3EMC      O   36   0.431   0.879   3.088
    3EMC      C   37   0.498   0.976   3.007
    3EMC      H   38   0.129   0.561   3.046
    3EMC      H   39   0.200   0.421   2.960
    3EMC      H   40   0.222   0.587   2.899
    3EMC      H   41   0.334   0.476   3.162
    3EMC      H   42   0.431   0.503   3.017
    3EMC      H   43   0.602   0.947   2.988
    3EMC      H   44   0.499   1.071   3.062
    3EMC      H   45   0.444   0.991   2.913
    4EMC      C   46   3.102   1.402   3.257
    4EMC      C   47   3.010   1.322   3.168
    4EMC      O   48   2.896   1.400   3.130
    4EMC      C   49   2.793   1.398   3.218
    4EMC      O   50   2.788   1.336   3.323
    4EMC      O   51   2.694   1.476   3.168
    4EMC      C   52   2.578   1.483   3.250
    4EMC      H   53   3.133   1.495   3.207
    4EMC      H   54   3.193   1.344   3.281
    4EMC      H   55   3.054   1.430   3.350
    4EMC      H   56   3.062   1.294   3.075
    4EMC      H   57   2.980   1.227   3.216
    4EMC      H   58   2.532   1.383   3.262
    4EMC      H   59   2.505   1.548   3.201
    4EMC      H   60   2.602   1.526   3.348
    5EMC      C   61   1.857   3.270   1.369
    5EMC      C   62   1.993   3.283   1.433
    5EMC      O   63   2.015   3.417   1.480
    5EMC      C   64   2.065   3.503   1.387
    5EMC      O   65   2.093   3.477   1.272
    5EMC      O   66   2.078   3.624   1.446
    5EMC      C   67   2.131   3.725   1.360
    5EMC      H   68   1.778   3.302   1.439
    5EMC      H   69   1.839   3.166   1.339
    5EMC      H   70   1.849   3.334   1.281
    5EMC      H   71   1.999   3.218   1.522
    5EMC      H   72   2.073   3.251   1.365
    5EMC      H   73   2.232   3.698   1.325
    5EMC      H   74   2.138   3.818   1.417
    5EMC      H   75   2.064   3.742   1.275
    6EMC      C   76   1.540   1.131   2.237
    6EMC      C   77   1.477   1.183   2.110
    6EMC      O   78   1.570   1.175   2.001
    6EMC      C   79   1.654   1.281   1.988
    6EMC      O   80   1.656   1.380   2.058
    6EMC      O   81   1.734   1.257   1.881
    6EMC      C   82   1.828   1.362   1.855
    6EMC      H   83   1.576   1.028   2.223
    6EMC      H   84   1.467   1.131   2.319
    6EMC      H   85   1.626   1.191   2.266
    6EMC      H   86   1.390   1.121   2.083
    6EMC      H   87   1.439   1.285   2.123
    6EMC      H   88   1.776   1.456   1.832
    6EMC      H   89   1.887   1.333   1.768
    6EMC      H   90   1.895   1.375   1.940
    7EMC      C   91   1.663   2.979   3.562
    7EMC      C   92   1.687   2.861   3.471
    7EMC      O   93   1.566   2.788   3.449
    7EMC      C   94   1.538   2.694   3.543
    7EMC      O   95   1.605   2.666   3.640
    7EMC      O   96   1.421   2.635   3.508
    7EMC      C   97   1.378   2.532   3.597
    7EMC      H   98   1.584   3.044   3.521
    7EMC      H   99   1.754   3.039   3.574
    7EMC      H  100   1.629   2.947   3.661
    7EMC      H  101   1.722   2.896   3.373
    7EMC      H  102   1.767   2.796   3.510
    7EMC      H  103   1.452   2.450   3.601
    7EMC      H  104   1.284   2.491   3.560
    7EMC      H  105   1.361   2.573   3.697
    8EMC      C  106   0.944   3.907   3.891
    8EMC      C  107   0.961   3.823   3.767
    8EMC      O  108   1.097   3.783   3.751
    8EMC      C  109   1.175   3.873   3.685
    8EMC      O  110   1.140   3.979   3.639
    8EMC      O  111   1.301   3.821   3.678
    8EMC      C  112   1.394   3.904   3.610
    8EMC      H  113   0.981   3.854   3.980
    8EMC      H  114   0.838   3.932   3.907
    8EMC      H  115   1.000   4.000   3.884
    8EMC      H  116   0.902   3.730   3.777
    8EMC      H  117   0.922   3.874   3.678
    8EMC      H  118   1.364   3.920   3.506
    8EMC      H  119   1.491   3.854   3.611
    8EMC      H  120   1.405   4.000   3.662
    9EMC      C  121   1.716   1.965   1.968
    9EMC      C  122   1.858   1.911   1.972
    9EMC      O  123   1.904   1.882   1.839
    9EMC      C  124   1.872   1.758   1.793
    9EMC      O  125   1.810   1.672   1.853
    9EMC      O  126   1.922   1.747   1.668
    9EMC      C  127   1.896   1.620   1.606
    9EMC      H  128   1.710   2.053   1.903
    9EMC      H  129   1.683   1.993   2.069
    9EMC      H  130   1.647   1.891   1.929
    9EMC      H  131   1.926   1.988   2.013
    9EMC      H  132   1.866   1.824   2.038
    9EMC      H  133   1.942   1.539   1.664
    9EMC      H  134   1.940   1.621   1.506
    9EMC      H  135   1.789   1.604   1.596
   10EMC      C  136   1.844   0.471   3.107
   10EMC      C  137   1.819   0.602   3.178
   10EMC      O  138   1.922   0.628   3.273
   10EMC      C  139   1.904   0.573   3.396
   10EMC      O  140   1.809   0.505   3.431
   10EMC      O  141   2.010   0.607   3.473
   10EMC      C  142   2.004   0.555   3.606
   10EMC      H  143   1.943   0.472   3.059
   10EMC      H  144   1.768   0.454   3.030
   10EMC      H  145   1.842   0.387   3.176
   10EMC      H  146   1.820   0.685   3.106
   10EMC      H  147   1.719   0.604   3.225
   10EMC      H  148   1.916   0.594   3.659
   10EMC      H  149   2.094   0.588   3.659
   10EMC      H  150   2.003   0.446   3.605
   11EMC      C  151   2.234   0.938   0.198
   11EMC      C  152   2.372   1.000   0.214
   11EMC      O  153   2.433   0.957   0.336
   11EMC      C  154   2.401   1.032   0.445
   11EMC      O  155   2.329   1.129   0.448
   11EMC      O  156   2.467   0.979   0.552
   11EMC      C  157   2.443   1.048   0.674
   11EMC      H  158   2.241   0.829   0.204
   11EMC      H  159   2.190   0.966   0.102
   11EMC      H  160   2.167   0.971   0.278
   11EMC      H  161   2.437   0.966   0.132
   11EMC      H  162   2.367   1.109   0.206
   11EMC      H  163   2.478   1.152   0.668
   11EMC      H  164   2.500   0.998   0.753
   11EMC      H  165   2.337   1.045   0.701
   12EMC      C  166   1.543   2.166   3.926
   12EMC      C  167   1.612   2.061   3.842
   12EMC      O  168   1.704   2.122   3.752
   12EMC      C  169   1.652   2.163   3.634
   12EMC      O  170   1.536   2.153   3.599
   12EMC      O  171   1.752   2.218   3.560
   12EMC      C  172   1.710   2.266   3.432
   12EMC      H  173   1.617   2.227   3.980
   12EMC      H  174   1.476   2.120   4.000
   12EMC      H  175   1.484   2.234   3.865
   12EMC      H  176   1.670   1.994   3.907
   12EMC      H  177   1.539   1.998   3.789
   12EMC      H  178   1.671   2.183   3.371
   12EMC      H  179   1.798   2.307   3.382
   12EMC      H  180   1.636   2.345   3.443
   13EMC      C  181   3.582   1.965   3.617
   13EMC      C  182   3.616   1.984   3.470
   13EMC      O  183   3.607   2.121   3.433
   13EMC      C  184   3.482   2.163   3.396
   13EMC      O  185   3.382   2.095   3.391
   13EMC      O  186   3.490   2.295   3.365
   13EMC      C  187   3.366   2.352   3.323
   13EMC      H  188   3.647   2.028   3.679
   13EMC      H  189   3.596   1.861   3.647
   13EMC      H  190   3.479   1.994   3.637
   13EMC      H  191   3.720   1.953   3.452
   13EMC      H  192   3.554   1.920   3.406
   13EMC      H  193   3.329   2.302   3.232
   13EMC      H  194   3.384   2.457   3.300
   13EMC      H  195   3.293   2.346   3.403
   14EMC      C  196   2.513   2.973   2.468
   14EMC      C  197   2.482   2.871   2.574
   14EMC      O  198   2.603   2.818   2.629
   14EMC      C  199   2.657   2.712   2.562
   14EMC      O  200   2.611   2.661   2.462
   14EMC      O  201   2.770   2.675   2.627
   14EMC      C  202   2.837   2.564   2.567
   14EMC      H  203   2.577   3.053   2.508
   14EMC      H  204   2.421   3.019   2.429
   14EMC      H  205   2.567   2.929   2.384
   14EMC      H  206   2.427   2.918   2.657
   14EMC      H  207   2.417   2.791   2.535
   14EMC      H  208   2.772   2.475   2.566
   14EMC      H  209   2.925   2.542   2.626
   14EMC      H  210   2.868   2.589   2.465
   15EMC      C  211   1.729   0.717   0.374
   15EMC      C  212   1.763   0.863   0.399
   15EMC      O  213   1.695   0.910   0.516
   15EMC      C  214   1.569   0.956   0.495
   15EMC      O  215   1.510   0.961   0.389
   15EMC      O  216   1.519   0.997   0.615
   15EMC      C  217   1.386   1.049   0.608
   15EMC      H  218   1.754   0.656   0.463
   15EMC      H  219   1.786   0.679   0.288
   15EMC      H  220   1.623   0.704   0.355
   15EMC      H  221   1.871   0.873   0.418
   15EMC      H  222   1.740   0.925   0.311
   15EMC      H  223   1.383   1.138   0.543
   15EMC      H  224   1.356   1.079   0.708
   15EMC      H  225   1.317   0.972   0.572
   16EMC      C  226   2.653   0.966   3.410
   16EMC      C  227   2.687   1.108   3.371
   16EMC      O  228   2.622   1.201   3.458
   16EMC      C  229   2.496   1.236   3.421
   16EMC      O  230   2.436   1.196   3.324
   16EMC      O  231   2.449   1.324   3.513
   16EMC      C  232   2.316   1.369   3.487
   16EMC      H  233   2.679   0.948   3.516
   16EMC      H  234   2.708   0.894   3.348
   16EMC      H  235   2.547   0.947   3.400
   16EMC      H  236   2.796   1.125   3.382
   16EMC      H  237   2.664   1.128   3.266
   16EMC      H  238   2.311   1.422   3.391
   16EMC      H  239   2.288   1.439   3.566
   16EMC      H  240   2.246   1.285   3.488
   17EMC      C  241   0.785   1.323   3.019
   17EMC      C  242   0.714   1.435   2.947
   17EMC      O  243   0.807   1.529   2.894
   17EMC      C  244   0.845   1.627   2.981
   17EMC      O  245   0.807   1.641   3.095
   17EMC      O  246   0.934   1.707   2.916
   17EMC      C  247   0.982   1.816   2.995
   17EMC      H  248   0.858   1.275   2.952
   17EMC      H  249   0.714   1.247   3.054
   17EMC      H  250   0.841   1.360   3.105
   17EMC      H  251   0.658   1.394   2.861
   17EMC      H  252   0.639   1.483   3.011
   17EMC      H  253   0.899   1.882   3.026
   17EMC      H  254   1.052   1.874   2.934
   17EMC      H  255   1.036   1.778   3.083
   18EMC      C  256   2.752   1.041   0.831
   18EMC      C  257   2.837   1.148   0.767
   18EMC      O  258   2.951   1.090   0.703
   18EMC      C  259   3.059   1.070   0.783
   18EMC      O  260   3.067   1.097   0.901
   18EMC      O  261   3.157   1.015   0.707
   18EMC      C  262   3.278   0.988   0.779
   18EMC      H  263   2.722   0.966   0.756
   18EMC      H  264   2.661   1.085   0.875
   18EMC      H  265   2.806   0.988   0.909
   18EMC      H  266   2.780   1.201   0.689
   18EMC      H  267   2.867   1.225   0.841
   18EMC      H  268   3.320   1.081   0.819
   18EMC      H  269   3.349   0.944   0.710
   18EMC      H  270   3.259   0.917   0.860
   19EMC      C  271   2.252   3.259   1.788
   19EMC      C  272   2.372   3.167   1.782
   19EMC      O  273   2.478   3.226   1.706
   19EMC      C  274   2.471   3.205   1.571
   19EMC      O  275   2.386   3.141   1.513
   19EMC      O  276   2.577   3.267   1.514
   19EMC      C  277   2.584   3.252   1.373
   19EMC      H  278   2.281   3.357   1.828
   19EMC      H  279   2.174   3.216   1.851
   19EMC      H  280   2.211   3.276   1.688
   19EMC      H  281   2.411   3.151   1.884
   19EMC      H  282   2.345   3.068   1.743
   19EMC      H  283   2.594   3.146   1.345
   19EMC      H  284   2.672   3.306   1.337
   19EMC      H  285   2.495   3.296   1.325
   20EMC      C  286   0.412   1.152   3.650
   20EMC      C  287   0.325   1.268   3.690
   20EMC      O  288   0.255   1.321   3.577
   20EMC      C  289   0.324   1.414   3.505
   20EMC      O  290   0.436   1.455   3.529
   20EMC      O  291   0.245   1.453   3.402
   20EMC      C  292   0.305   1.551   3.318
   20EMC      H  293   0.352   1.074   3.600
   20EMC      H  294   0.460   1.107   3.738
   20EMC      H  295   0.489   1.182   3.580
   20EMC      H  296   0.248   1.235   3.762
   20EMC      H  297   0.383   1.346   3.742
   20EMC      H  298   0.326   1.643   3.374
   20EMC      H  299   0.233   1.576   3.239
   20EMC      H  300   0.395   1.512   3.271
   21EMC      C  301   1.438   2.903   3.045
   21EMC      C  302   1.306   2.976   3.054
   21EMC      O  303   1.320   3.095   3.132
   21EMC      C  304   1.305   3.079   3.266
   21EMC      O  305   1.281   2.975   3.324
   21EMC      O  306   1.321   3.200   3.325
   21EMC      C  307   1.307   3.198   3.467
   21EMC      H  308   1.516   2.969   3.004
   21EMC      H  309   1.429   2.815   2.980
   21EMC      H  310   1.472   2.870   3.143
   21EMC      H  311   1.274   3.008   2.954
   21EMC      H  312   1.226   2.911   3.093
   21EMC      H  313   1.206   3.164   3.496
   21EMC      H  314   1.322   3.299   3.504
   21EMC      H  315   1.383   3.134   3.512
   22EMC      C  316   2.319   0.949   1.456
   22EMC      C  317   2.294   0.948   1.605
   22EMC      O  318   2.251   1.077   1.649
   22EMC      C  319   2.352   1.164   1.679
   22EMC      O  320   2.471   1.141   1.673
   22EMC      O  321   2.295   1.281   1.719
   22EMC      C  322   2.390   1.382   1.755
   22EMC      H  323   2.229   0.982   1.401
   22EMC      H  324   2.345   0.848   1.421
   22EMC      H  325   2.399   1.017   1.429
   22EMC      H  326   2.212   0.878   1.628
   22EMC      H  327   2.382   0.913   1.660
   22EMC      H  328   2.451   1.349   1.840
   22EMC      H  329   2.334   1.471   1.785
   22EMC      H  330   2.452   1.407   1.669
   23EMC      C  331   1.942   1.002   1.560
   23EMC      C  332   1.931   1.131   1.637
   23EMC      O  333   1.928   1.243   1.548
   23EMC      C  334   2.049   1.291   1.512
   23EMC      O  335   2.158   1.249   1.547
   23EMC      O  336   2.029   1.396   1.428
   23EMC      C  337   2.149   1.457   1.381
   23EMC      H  338   1.860   0.993   1.487
   23EMC      H  339   1.938   0.916   1.628
   23EMC      H  340   2.035   0.997   1.504
   23EMC      H  341   1.836   1.133   1.694
   23EMC      H  342   2.011   1.141   1.712
   23EMC      H  343   2.207   1.498   1.465
   23EMC      H  344   2.122   1.539   1.315
   23EMC      H  345   2.209   1.385   1.324
   24EMC      C  346   2.064   2.692   3.669
   24EMC      C  347   1.988   2.613   3.772
   24EMC      O  348   2.057   2.492   3.805
   24EMC      C  349   2.030   2.386   3.723
   24EMC      O  350   1.954   2.386   3.628
   24EMC      O  351   2.103   2.281   3.767
   24EMC      C  352   2.084   2.162   3.691
   24EMC      H  353   2.167   2.712   3.704
   24EMC      H  354   2.015   2.788   3.648
   24EMC      H  355   2.073   2.637   3.575
   24EMC      H  356   1.980   2.671   3.865
   24EMC      H  357   1.884   2.593   3.739
   24EMC      H  358   1.979   2.128   3.695
   24EMC      H  359   2.147   2.083   3.734
   24EMC      H  360   2.116   2.177   3.587
   25EMC      C  361   3.654   2.287   2.326
   25EMC      C  362   3.643   2.423   2.391
   25EMC      O  363   3.520   2.435   2.464
   25EMC      C  364   3.413   2.476   2.391
   25EMC      O  365   3.413   2.504   2.273
   25EMC      O  366   3.306   2.481   2.474
   25EMC      C  367   3.186   2.524   2.410
   25EMC      H  368   3.644   2.208   2.401
   25EMC      H  369   3.750   2.276   2.275
   25EMC      H  370   3.575   2.272   2.253
   25EMC      H  371   3.725   2.436   2.464
   25EMC      H  372   3.654   2.504   2.318
   25EMC      H  373   3.197   2.626   2.370
   25EMC      H  374   3.106   2.525   2.485
   25EMC      H  375   3.157   2.454   2.331
   26EMC      C  376   3.908   3.360   0.626
   26EMC      C  377   3.815   3.466   0.681
   26EMC      O  378   3.881   3.544   0.780
   26EMC      C  379   3.876   3.494   0.907
   26EMC      O  380   3.821   3.391   0.941
   26EMC      O  381   3.943   3.579   0.988
   26EMC      C  382   3.945   3.538   1.125
   26EMC      H  383   4.000   3.406   0.587
   26EMC      H  384   3.860   3.304   0.545
   26EMC      H  385   3.938   3.290   0.704
   26EMC      H  386   3.786   3.535   0.600
   26EMC      H  387   3.722   3.422   0.719
   26EMC      H  388   3.843   3.533   1.166
   26EMC      H  389   4.000   3.613   1.182
   26EMC      H  390   3.996   3.442   1.136
   27EMC      C  391   1.082   2.862   3.491
   27EMC      C  392   1.187   2.755   3.475
   27EMC      O  393   1.162   2.677   3.358
   27EMC      C  394   1.077   2.572   3.376
   27EMC      O  395   1.023   2.540   3.480
   27EMC      O  396   1.063   2.509   3.257
   27EMC      C  397   0.976   2.395   3.261
   27EMC      H  398   1.076   2.925   3.401
   27EMC      H  399   1.105   2.926   3.577
   27EMC      H  400   0.983   2.819   3.506
   27EMC      H  401   1.286   2.802   3.461
   27EMC      H  402   1.196   2.693   3.565
   27EMC      H  403   1.015   2.319   3.330
   27EMC      H  404   0.972   2.352   3.161
   27EMC      H  405   0.875   2.425   3.290
   28EMC      C  406   2.842   2.376   3.294
   28EMC      C  407   2.914   2.509   3.297
   28EMC      O  408   2.854   2.596   3.393
   28EMC      C  409   2.748   2.669   3.347
   28EMC      O  410   2.702   2.667   3.235
   28EMC      O  411   2.703   2.745   3.450
   28EMC      C  412   2.592   2.828   3.416
   28EMC      H  413   2.841   2.331   3.394
   28EMC      H  414   2.892   2.307   3.224
   28EMC      H  415   2.739   2.387   3.262
   28EMC      H  416   3.019   2.494   3.328
   28EMC      H  417   2.918   2.555   3.197
   28EMC      H  418   2.619   2.899   3.336
   28EMC      H  419   2.564   2.885   3.504
   28EMC      H  420   2.507   2.767   3.386
   29EMC      C  421   0.152   3.429   3.469
   29EMC      C  422   0.296   3.399   3.500
   29EMC      O  423   0.361   3.513   3.555
   29EMC      C  424   0.413   3.600   3.464
   29EMC      O  425   0.409   3.589   3.343
   29EMC      O  426   0.470   3.703   3.533
   29EMC      C  427   0.529   3.802   3.449
   29EMC      H  428   0.100   3.465   3.559
   29EMC      H  429   0.100   3.340   3.432
   29EMC      H  430   0.143   3.508   3.394
   29EMC      H  431   0.302   3.319   3.575
   29EMC      H  432   0.349   3.361   3.411
   29EMC      H  433   0.610   3.759   3.388
   29EMC      H  434   0.572   3.879   3.513
   29EMC      H  435   0.453   3.849   3.386
   30EMC      C  436   2.576   2.264   1.023
   30EMC      C  437   2.551   2.351   0.902
   30EMC      O  438   2.418   2.331   0.852
   30EMC      C  439   2.404   2.228   0.765
   30EMC      O  440   2.491   2.153   0.727
   30EMC      O  441   2.273   2.222   0.729
   30EMC      C  442   2.243   2.118   0.637
   30EMC      H  443   2.501   2.284   1.101
   30EMC      H  444   2.676   2.284   1.065
   30EMC      H  445   2.569   2.159   0.999
   30EMC      H  446   2.559   2.457   0.929
   30EMC      H  447   2.626   2.333   0.823
   30EMC      H  448   2.299   2.131   0.543
   30EMC      H  449   2.136   2.123   0.614
   30EMC      H  450   2.264   2.020   0.681
   31EMC      C  451   3.259   2.101   2.893
   31EMC      C  452   3.256   1.950   2.888
   31EMC      O  453   3.127   1.900   2.925
   31EMC      C  454   3.108   1.883   3.058
   31EMC      O  455   3.188   1.905   3.146
   31EMC      O  456   2.982   1.836   3.076
   31EMC      C  457   2.947   1.813   3.212
   31EMC      H  458   3.180   2.143   2.829
   31EMC      H  459   3.356   2.139   2.859
   31EMC      H  460   3.241   2.137   2.994
   31EMC      H  461   3.275   1.916   2.785
   31EMC      H  462   3.336   1.906   2.950
   31EMC      H  463   3.013   1.736   3.257
   31EMC      H  464   2.844   1.775   3.216
   31EMC      H  465   2.952   1.905   3.270
   32EMC      C  466   1.701   1.908   2.639
   32EMC      C  467   1.668   1.784   2.718
   32EMC      O  468   1.659   1.670   2.632
   32EMC      C  469   1.537   1.651   2.575
   32EMC      O  470   1.438   1.719   2.591
   32EMC      O  471   1.545   1.540   2.497
   32EMC      C  472   1.424   1.507   2.430
   32EMC      H  473   1.794   1.894   2.582
   32EMC      H  474   1.715   1.995   2.706
   32EMC      H  475   1.623   1.932   2.567
   32EMC      H  476   1.749   1.763   2.791
   32EMC      H  477   1.576   1.798   2.778
   32EMC      H  478   1.344   1.485   2.503
   32EMC      H  479   1.441   1.417   2.371
   32EMC      H  480   1.393   1.588   2.363
   33EMC      C  481   2.204   1.821   1.723
   33EMC      C  482   2.207   1.690   1.648
   33EMC      O  483   2.340   1.638   1.642
   33EMC      C  484   2.415   1.684   1.539
   33EMC      O  485   2.380   1.763   1.453
   33EMC      O  486   2.537   1.626   1.548
   33EMC      C  487   2.628   1.665   1.445
   33EMC      H  488   2.246   1.808   1.824
   33EMC      H  489   2.101   1.857   1.733
   33EMC      H  490   2.263   1.897   1.673
   33EMC      H  491   2.145   1.615   1.701
   33EMC      H  492   2.162   1.700   1.548
   33EMC      H  493   2.589   1.636   1.346
   33EMC      H  494   2.723   1.613   1.461
   33EMC      H  495   2.647   1.773   1.449
   34EMC      C  496   1.046   3.340   2.816
   34EMC      C  497   1.027   3.197   2.862
   34EMC      O  498   0.902   3.182   2.929
   34EMC      C  499   0.904   3.210   3.062
   34EMC      O  500   1.001   3.246   3.127
   34EMC      O  501   0.779   3.191   3.111
   34EMC      C  502   0.766   3.217   3.251
   34EMC      H  503   0.961   3.372   2.753
   34EMC      H  504   1.139   3.350   2.759
   34EMC      H  505   1.049   3.408   2.901
   34EMC      H  506   1.024   3.130   2.774
   34EMC      H  507   1.111   3.163   2.924
   34EMC      H  508   0.831   3.149   3.309
   34EMC      H  509   0.663   3.199   3.280
   34EMC      H  510   0.790   3.321   3.273
   35EMC      C  511   2.858   2.040   3.659
   35EMC      C  512   2.764   2.020   3.542
   35EMC      O  513   2.694   2.142   3.512
   35EMC      C  514   2.580   2.161   3.583
   35EMC      O  515   2.534   2.087   3.667
   35EMC      O  516   2.527   2.280   3.544
   35EMC      C  517   2.405   2.313   3.610
   35EMC      H  518   2.928   2.123   3.639
   35EMC      H  519   2.916   1.949   3.678
   35EMC      H  520   2.803   2.066   3.749
   35EMC      H  521   2.822   1.994   3.452
   35EMC      H  522   2.695   1.937   3.560
   35EMC      H  523   2.327   2.238   3.590
   35EMC      H  524   2.371   2.409   3.571
   35EMC      H  525   2.422   2.324   3.718
   36EMC      C  526   0.710   1.802   2.290
   36EMC      C  527   0.626   1.902   2.367
   36EMC      O  528   0.506   1.841   2.414
   36EMC      C  529   0.402   1.841   2.327
   36EMC      O  530   0.403   1.888   2.214
   36EMC      O  531   0.297   1.780   2.386
   36EMC      C  532   0.180   1.773   2.305
   36EMC      H  533   0.732   1.714   2.352
   36EMC      H  534   0.805   1.847   2.259
   36EMC      H  535   0.658   1.767   2.202
   36EMC      H  536   0.682   1.937   2.456
   36EMC      H  537   0.605   1.992   2.307
   36EMC      H  538   0.144   1.874   2.280
   36EMC      H  539   0.102   1.722   2.362
   36EMC      H  540   0.199   1.715   2.215
   37EMC      C  541   1.152   1.821   2.328
   37EMC      C  542   1.084   1.856   2.198
   37EMC      O  543   1.174   1.843   2.088
   37EMC      C  544   1.251   1.953   2.062
   37EMC      O  545   1.248   2.058   2.123
   37EMC      O  546   1.331   1.924   1.956
   37EMC      C  547   1.417   2.032   1.918
   37EMC      H  548   1.195   1.719   2.322
   37EMC      H  549   1.081   1.825   2.411
   37EMC      H  550   1.235   1.889   2.349
   37EMC      H  551   1.001   1.786   2.179
   37EMC      H  552   1.039   1.957   2.202
   37EMC      H  553   1.358   2.120   1.887
   37EMC      H  554   1.476   1.998   1.832
   37EMC      H  555   1.485   2.057   1.999
   38EMC      C  556   2.875   0.824   3.172
   38EMC      C  557   2.753   0.774   3.099
   38EMC      O  558   2.753   0.631   3.093
   38EMC      C  559   2.822   0.578   2.988
   38EMC      O  560   2.881   0.639   2.902
   38EMC      O  561   2.813   0.443   2.997
   38EMC      C  562   2.881   0.373   2.893
   38EMC      H  563   2.880   0.780   3.273
   38EMC      H  564   2.871   0.934   3.183
   38EMC      H  565   2.966   0.797   3.121
   38EMC      H  566   2.662   0.803   3.153
   38EMC      H  567   2.745   0.819   2.999
   38EMC      H  568   2.839   0.399   2.794
   38EMC      H  569   2.868   0.266   2.909
   38EMC      H  570   2.988   0.395   2.895
   39EMC      C  571   3.634   0.636   2.045
   39EMC      C  572   3.497   0.689   2.009
   39EMC      O  573   3.499   0.756   1.883
   39EMC      C  574   3.534   0.888   1.888
   39EMC      O  575   3.562   0.951   1.988
   39EMC      O  576   3.533   0.936   1.762
   39EMC      C  577   3.567   1.074   1.752
   39EMC      H  578   3.671   0.570   1.965
   39EMC      H  579   3.630   0.579   2.139
   39EMC      H  580   3.706   0.717   2.056
   39EMC      H  581   3.426   0.605   1.999
   39EMC      H  582   3.457   0.754   2.089
   39EMC      H  583   3.496   1.136   1.808
   39EMC      H  584   3.563   1.103   1.647
   39EMC      H  585   3.669   1.091   1.788
   40EMC      C  586   3.069   2.795   2.604
   40EMC      C  587   3.079   2.829   2.751
   40EMC      O  588   3.068   2.710   2.831
   40EMC      C  589   2.941   2.672   2.861
   40EMC      O  590   2.839   2.729   2.828
   40EMC      O  591   2.948   2.560   2.936
   40EMC      C  592   2.821   2.508   2.976
   40EMC      H  593   3.146   2.721   2.577
   40EMC      H  594   3.084   2.885   2.543
   40EMC      H  595   2.973   2.752   2.580
   40EMC      H  596   3.178   2.873   2.773
   40EMC      H  597   3.004   2.904   2.780
   40EMC      H  598   2.767   2.581   3.039
   40EMC      H  599   2.838   2.418   3.036
   40EMC      H  600   2.762   2.481   2.889
   41EMC      C  601   2.647   0.182   0.516
   41EMC      C  602   2.718   0.282   0.604
   41EMC      O  603   2.629   0.384   0.647
   41EMC      C  604   2.616   0.490   0.562
   41EMC      O  605   2.674   0.504   0.456
   41EMC      O  606   2.528   0.577   0.617
   41EMC      C  607   2.506   0.694   0.538
   41EMC      H  608   2.560   0.140   0.567
   41EMC      H  609   2.714   0.100   0.488
   41EMC      H  610   2.611   0.230   0.424
   41EMC      H  611   2.755   0.231   0.695
   41EMC      H  612   2.807   0.323   0.555
   41EMC      H  613   2.599   0.750   0.524
   41EMC      H  614   2.434   0.757   0.590
   41EMC      H  615   2.463   0.667   0.441
   42EMC      C  616   2.714   1.332   1.956
   42EMC      C  617   2.792   1.364   1.831
   42EMC      O  618   2.849   1.245   1.775
   42EMC      C  619   2.970   1.209   1.826
   42EMC      O  620   3.033   1.268   1.911
   42EMC      O  621   3.008   1.096   1.763
   42EMC      C  622   3.135   1.046   1.806
   42EMC      H  623   2.637   1.257   1.936
   42EMC      H  624   2.666   1.423   1.996
   42EMC      H  625   2.779   1.291   2.034
   42EMC      H  626   2.725   1.407   1.755
   42EMC      H  627   2.869   1.441   1.850
   42EMC      H  628   3.215   1.119   1.785
   42EMC      H  629   3.157   0.955   1.749
   42EMC      H  630   3.133   1.021   1.912
   43EMC      C  631   1.630   1.602   0.830
   43EMC      C  632   1.778   1.581   0.809
   43EMC      O  633   1.821   1.644   0.687
   43EMC      C  634   1.807   1.567   0.575
   43EMC      O  635   1.764   1.454   0.570
   43EMC      O  636   1.851   1.640   0.470
   43EMC      C  637   1.844   1.572   0.345
   43EMC      H  638   1.605   1.709   0.829
   43EMC      H  639   1.598   1.559   0.926
   43EMC      H  640   1.572   1.555   0.751
   43EMC      H  641   1.834   1.629   0.891
   43EMC      H  642   1.805   1.475   0.811
   43EMC      H  643   1.906   1.482   0.346
   43EMC      H  644   1.881   1.639   0.267
   43EMC      H  645   1.740   1.547   0.321
   44EMC      C  646   3.172   0.541   0.509
   44EMC      C  647   3.042   0.468   0.484
   44EMC      O  648   2.931   0.557   0.500
   44EMC      C  649   2.884   0.568   0.627
   44EMC      O  650   2.927   0.511   0.725
   44EMC      O  651   2.780   0.655   0.625
   44EMC      C  652   2.720   0.677   0.753
   44EMC      H  653   3.181   0.629   0.444
   44EMC      H  654   3.258   0.475   0.491
   44EMC      H  655   3.178   0.577   0.612
   44EMC      H  656   3.039   0.432   0.380
   44EMC      H  657   3.033   0.379   0.548
   44EMC      H  658   2.679   0.583   0.794
   44EMC      H  659   2.638   0.748   0.741
   44EMC      H  660   2.793   0.720   0.823
   45EMC      C  661   0.512   3.920   0.490
   45EMC      C  662   0.554   3.805   0.401
   45EMC      O  663   0.443   3.758   0.325
   45EMC      C  664   0.366   3.665   0.386
   45EMC      O  665   0.383   3.619   0.497
   45EMC      O  666   0.266   3.631   0.301
   45EMC      C  667   0.176   3.533   0.353
   45EMC      H  668   0.467   4.001   0.431
   45EMC      H  669   0.599   3.960   0.544
   45EMC      H  670   0.438   3.889   0.563
   45EMC      H  671   0.630   3.840   0.329
   45EMC      H  672   0.601   3.724   0.459
   45EMC      H  673   0.229   3.439   0.374
   45EMC      H  674   0.100   3.513   0.277
   45EMC      H  675   0.126   3.570   0.443
   46EMC      C  676   3.106   3.449   2.730
   46EMC      C  677   3.241   3.383   2.724
   46EMC      O  678   3.281   3.360   2.589
   46EMC      C  679   3.237   3.243   2.535
   46EMC      O  680   3.169   3.159   2.591
   46EMC      O  681   3.282   3.236   2.408
   46EMC      C  682   3.244   3.118   2.338
   46EMC      H  683   3.106   3.542   2.671
   46EMC      H  684   3.078   3.473   2.833
   46EMC      H  685   3.029   3.385   2.687
   46EMC      H  686   3.317   3.450   2.769
   46EMC      H  687   3.243   3.290   2.784
   46EMC      H  688   3.284   3.028   2.388
   46EMC      H  689   3.285   3.122   2.237
   46EMC      H  690   3.135   3.112   2.330
   47EMC      C  691   2.011   2.663   1.842
   47EMC      C  692   2.008   2.743   1.714
   47EMC      O  693   2.048   2.878   1.738
   47EMC      C  694   1.948   2.962   1.777
   47EMC      O  695   1.832   2.932   1.793
   47EMC      O  696   2.003   3.084   1.796
   47EMC      C  697   1.909   3.184   1.837
   47EMC      H  698   2.111   2.668   1.888
   47EMC      H  699   1.986   2.557   1.823
   47EMC      H  700   1.941   2.702   1.915
   47EMC      H  701   2.080   2.700   1.642
   47EMC      H  702   1.909   2.737   1.666
   47EMC      H  703   1.830   3.197   1.761
   47EMC      H  704   1.962   3.278   1.848
   47EMC      H  705   1.865   3.157   1.933
   48EMC      C  706   1.008   1.528   0.504
   48EMC      C  707   1.103   1.448   0.590
   48EMC      O  708   1.222   1.523   0.617
   48EMC      C  709   1.319   1.513   0.523
   48EMC      O  710   1.315   1.447   0.421
   48EMC      O  711   1.424   1.589   0.563
   48EMC      C  712   1.535   1.588   0.473
   48EMC      H  713   0.985   1.624   0.552
   48EMC      H  714   0.914   1.473   0.488
   48EMC      H  715   1.052   1.550   0.407
   48EMC      H  716   1.056   1.426   0.687
   48EMC      H  717   1.126   1.350   0.545
   48EMC      H  718   1.575   1.486   0.462
   48EMC      H  719   1.613   1.652   0.514
   48EMC      H  720   1.506   1.628   0.375
   49EMC      C  721   3.496   0.508   0.162
   49EMC      C  722   3.445   0.475   0.300
   49EMC      O  723   3.431   0.595   0.378
   49EMC      C  724   3.543   0.635   0.443
   49EMC      O  725   3.651   0.580   0.441
   49EMC      O  726   3.513   0.749   0.510
   49EMC      C  727   3.623   0.803   0.584
   49EMC      H  728   3.430   0.580   0.112
   49EMC      H  729   3.501   0.417   0.100
   49EMC      H  730   3.595   0.552   0.165
   49EMC      H  731   3.345   0.430   0.293
   49EMC      H  732   3.509   0.402   0.351
   49EMC      H  733   3.657   0.732   0.661
   49EMC      H  734   3.588   0.893   0.635
   49EMC      H  735   3.705   0.830   0.517
   50EMC      C  736   3.878   1.490   3.635
   50EMC      C  737   3.749   1.569   3.630
   50EMC      O  738   3.700   1.577   3.496
   50EMC      C  739   3.750   1.679   3.422
   50EMC      O  740   3.830   1.762   3.458
   50EMC      O  741   3.693   1.672   3.299
   50EMC      C  742   3.737   1.774   3.209
   50EMC      H  743   3.863   1.390   3.592
   50EMC      H  744   3.913   1.479   3.738
   50EMC      H  745   3.956   1.539   3.577
   50EMC      H  746   3.672   1.518   3.690
   50EMC      H  747   3.762   1.669   3.675
   50EMC      H  748   3.710   1.874   3.247
   50EMC      H  749   3.686   1.760   3.113
   50EMC      H  750   3.844   1.767   3.192
   51EMC      C  751   0.441   1.411   2.354
   51EMC      C  752   0.391   1.441   2.215
   51EMC      O  753   0.475   1.379   2.117
   51EMC      C  754   0.583   1.451   2.079
   51EMC      O  755   0.614   1.562   2.119
   51EMC      O  756   0.651   1.379   1.987
   51EMC      C  757   0.768   1.444   1.937
   51EMC      H  758   0.449   1.303   2.370
   51EMC      H  759   0.374   1.454   2.430
   51EMC      H  760   0.541   1.453   2.370
   51EMC      H  761   0.290   1.398   2.202
   51EMC      H  762   0.382   1.549   2.197
   51EMC      H  763   0.742   1.538   1.887
   51EMC      H  764   0.815   1.378   1.864
   51EMC      H  765   0.840   1.462   2.018
   52EMC      C  766   0.895   1.592   0.946
   52EMC      C  767   1.031   1.537   0.983
   52EMC      O  768   1.118   1.641   1.026
   52EMC      C  769   1.185   1.705   0.927
   52EMC      O  770   1.179   1.681   0.808
   52EMC      O  771   1.263   1.801   0.985
   52EMC      C  772   1.340   1.876   0.892
   52EMC      H  773   0.852   1.648   1.030
   52EMC      H  774   0.826   1.511   0.919
   52EMC      H  775   0.902   1.662   0.862
   52EMC      H  776   1.020   1.467   1.067
   52EMC      H  777   1.074   1.479   0.900
   52EMC      H  778   1.410   1.811   0.838
   52EMC      H  779   1.399   1.950   0.948
   52EMC      H  780   1.276   1.930   0.822
   53EMC      C  781   3.374   1.408   3.696
   53EMC      C  782   3.259   1.343   3.623
   53EMC      O  783   3.196   1.436   3.535
   53EMC      C  784   3.099   1.513   3.591
   53EMC      O  785   3.062   1.509   3.707
   53EMC      O  786   3.051   1.595   3.495
   53EMC      C  787   2.947   1.682   3.540
   53EMC      H  788   3.446   1.451   3.625
   53EMC      H  789   3.426   1.335   3.760
   53EMC      H  790   3.340   1.490   3.759
   53EMC      H  791   3.297   1.260   3.561
   53EMC      H  792   3.187   1.298   3.693
   53EMC      H  793   2.860   1.625   3.576
   53EMC      H  794   2.915   1.744   3.456
   53EMC      H  795   2.984   1.749   3.619
   54EMC      C  796   1.669   1.559   3.850
   54EMC      C  797   1.718   1.573   3.708
   54EMC      O  798   1.615   1.628   3.624
   54EMC      C  799   1.529   1.537   3.572
   54EMC      O  800   1.532   1.416   3.589
   54EMC      O  801   1.439   1.604   3.496
   54EMC      C  802   1.342   1.520   3.434
   54EMC      H  803   1.633   1.656   3.888
   54EMC      H  804   1.750   1.524   3.915
   54EMC      H  805   1.586   1.490   3.856
   54EMC      H  806   1.803   1.644   3.704
   54EMC      H  807   1.756   1.478   3.669
   54EMC      H  808   1.390   1.449   3.365
   54EMC      H  809   1.275   1.583   3.375
   54EMC      H  810   1.283   1.467   3.509
   55EMC      C  811   0.193   0.961   1.433
   55EMC      C  812   0.260   0.975   1.568
   55EMC      O  813   0.377   1.056   1.558
   55EMC      C  814   0.491   0.991   1.523
   55EMC      O  815   0.501   0.872   1.501
   55EMC      O  816   0.591   1.082   1.519
   55EMC      C  817   0.718   1.026   1.483
   55EMC      H  818   0.170   1.060   1.392
   55EMC      H  819   0.100   0.904   1.441
   55EMC      H  820   0.258   0.911   1.361
   55EMC      H  821   0.192   1.025   1.639
   55EMC      H  822   0.283   0.876   1.612
   55EMC      H  823   0.750   0.951   1.557
   55EMC      H  824   0.791   1.107   1.482
   55EMC      H  825   0.714   0.982   1.383
   56EMC      C  826   1.126   0.459   0.617
   56EMC      C  827   1.015   0.357   0.616
   56EMC      O  828   0.946   0.356   0.741
   56EMC      C  829   1.001   0.276   0.837
   56EMC      O  830   1.100   0.207   0.824
   56EMC      O  831   0.925   0.287   0.948
   56EMC      C  832   0.971   0.207   1.057
   56EMC      H  833   1.087   0.559   0.642
   56EMC      H  834   1.175   0.465   0.518
   56EMC      H  835   1.202   0.435   0.691
   56EMC      H  836   0.941   0.384   0.539
   56EMC      H  837   1.052   0.257   0.589
   56EMC      H  838   0.970   0.100   1.031
   56EMC      H  839   0.904   0.222   1.142
   56EMC      H  840   1.072   0.238   1.088
   57EMC      C  841   0.985   3.868   1.893
   57EMC      C  842   0.976   3.763   1.784
   57EMC      O  843   0.840   3.729   1.759
   57EMC      C  844   0.789   3.631   1.839
   57EMC      O  845   0.849   3.571   1.927
   57EMC      O  846   0.660   3.610   1.803
   57EMC      C  847   0.595   3.508   1.879
   57EMC      H  848   0.925   3.956   1.867
   57EMC      H  849   1.089   3.899   1.908
   57EMC      H  850   0.947   3.830   1.987
   57EMC      H  851   1.016   3.804   1.690
   57EMC      H  852   1.037   3.675   1.808
   57EMC      H  853   0.645   3.411   1.866
   57EMC      H  854   0.492   3.499   1.842
   57EMC      H  855   0.591   3.536   1.985
   58EMC      C  856   2.121   2.229   3.273
   58EMC      C  857   2.055   2.339   3.193
   58EMC      O  858   2.141   2.452   3.183
   58EMC      C  859   2.132   2.540   3.287
   58EMC      O  860   2.058   2.531   3.383
   58EMC      O  861   2.219   2.641   3.263
   58EMC      C  862   2.220   2.742   3.364
   58EMC      H  863   2.218   2.202   3.229
   58EMC      H  864   2.057   2.139   3.274
   58EMC      H  865   2.139   2.260   3.375
   58EMC      H  866   2.037   2.304   3.089
   58EMC      H  867   1.957   2.365   3.234
   58EMC      H  868   2.121   2.790   3.372
   58EMC      H  869   2.293   2.818   3.336
   58EMC      H  870   2.250   2.700   3.460
   59EMC      C  871   0.794   1.279   2.668
   59EMC      C  872   0.723   1.359   2.562
   59EMC      O  873   0.658   1.273   2.468
   59EMC      C  874   0.736   1.231   2.365
   59EMC      O  875   0.852   1.260   2.346
   59EMC      O  876   0.660   1.150   2.287
   59EMC      C  877   0.730   1.099   2.173
   59EMC      H  878   0.724   1.211   2.718
   59EMC      H  879   0.838   1.345   2.744
   59EMC      H  880   0.873   1.218   2.625
   59EMC      H  881   0.644   1.421   2.609
   59EMC      H  882   0.791   1.430   2.512
   59EMC      H  883   0.764   1.180   2.107
   59EMC      H  884   0.660   1.036   2.117
   59EMC      H  885   0.814   1.037   2.205
   60EMC      C  886   3.319   0.745   3.214
   60EMC      C  887   3.375   0.671   3.334
   60EMC      O  888   3.518   0.680   3.337
   60EMC      C  889   3.583   0.585   3.265
   60EMC      O  890   3.532   0.496   3.201
   60EMC      O  891   3.716   0.608   3.278
   60EMC      C  892   3.798   0.514   3.208
   60EMC      H  893   3.353   0.849   3.214
   60EMC      H  894   3.210   0.743   3.215
   60EMC      H  895   3.354   0.700   3.121
   60EMC      H  896   3.338   0.718   3.427
   60EMC      H  897   3.341   0.567   3.337
   60EMC      H  898   3.782   0.412   3.245
   60EMC      H  899   3.902   0.541   3.225
   60EMC      H  900   3.778   0.519   3.100
   61EMC      C  901   3.509   0.973   1.358
   61EMC      C  902   3.528   1.122   1.338
   61EMC      O  903   3.445   1.196   1.428
   61EMC      C  904   3.319   1.219   1.383
   61EMC      O  905   3.272   1.184   1.277
   61EMC      O  906   3.254   1.290   1.479
   61EMC      C  907   3.119   1.322   1.446
   61EMC      H  908   3.529   0.946   1.463
   61EMC      H  909   3.578   0.916   1.294
   61EMC      H  910   3.407   0.943   1.336
   61EMC      H  911   3.633   1.149   1.361
   61EMC      H  912   3.511   1.150   1.233
   61EMC      H  913   3.115   1.385   1.356
   61EMC      H  914   3.076   1.378   1.529
   61EMC      H  915   3.060   1.231   1.432
   62EMC      C  916   3.102   3.685   3.593
   62EMC      C  917   3.152   3.801   3.511
   62EMC      O  918   3.044   3.861   3.439
   62EMC      C  919   3.016   3.805   3.318
   62EMC      O  920   3.073   3.711   3.268
   62EMC      O  921   2.912   3.873   3.264
   62EMC      C  922   2.872   3.825   3.136
   62EMC      H  923   3.022   3.717   3.661
   62EMC      H  924   3.184   3.642   3.653
   62EMC      H  925   3.061   3.606   3.530
   62EMC      H  926   3.193   3.879   3.577
   62EMC      H  927   3.233   3.771   3.444
   62EMC      H  928   2.954   3.834   3.063
   62EMC      H  929   2.788   3.886   3.101
   62EMC      H  930   2.838   3.721   3.143
   63EMC      C  931   3.158   1.518   1.839
   63EMC      C  932   3.292   1.468   1.887
   63EMC      O  933   3.397   1.520   1.805
   63EMC      C  934   3.424   1.448   1.693
   63EMC      O  935   3.369   1.346   1.658
   63EMC      O  936   3.525   1.511   1.627
   63EMC      C  937   3.565   1.445   1.506
   63EMC      H  938   3.156   1.628   1.837
   63EMC      H  939   3.078   1.483   1.906
   63EMC      H  940   3.136   1.484   1.738
   63EMC      H  941   3.311   1.504   1.989
   63EMC      H  942   3.295   1.358   1.891
   63EMC      H  943   3.602   1.344   1.527
   63EMC      H  944   3.646   1.503   1.461
   63EMC      H  945   3.482   1.442   1.435
   64EMC      C  946   0.549   1.236   1.267
   64EMC      C  947   0.536   1.272   1.120
   64EMC      O  948   0.469   1.397   1.105
   64EMC      C  949   0.334   1.391   1.101
   64EMC      O  950   0.266   1.290   1.110
   64EMC      O  951   0.286   1.517   1.086
   64EMC      C  952   0.144   1.525   1.081
   64EMC      H  953   0.600   1.316   1.322
   64EMC      H  954   0.605   1.143   1.279
   64EMC      H  955   0.451   1.224   1.313
   64EMC      H  956   0.636   1.283   1.076
   64EMC      H  957   0.486   1.192   1.064
   64EMC      H  958   0.105   1.469   0.994
   64EMC      H  959   0.116   1.630   1.068
   64EMC      H  960   0.100   1.489   1.174
   65EMC      C  961   2.363   0.681   2.243
   65EMC      C  962   2.317   0.822   2.273
   65EMC      O  963   2.427   0.913   2.266
   65EMC      C  964   2.498   0.926   2.381
   65EMC      O  965   2.477   0.869   2.486
   65EMC      O  966   2.598   1.015   2.358
   65EMC      C  967   2.682   1.039   2.471
   65EMC      H  968   2.413   0.677   2.145
   65EMC      H  969   2.278   0.611   2.242
   65EMC      H  970   2.435   0.646   2.316
   65EMC      H  971   2.244   0.854   2.197
   65EMC      H  972   2.265   0.827   2.370
   65EMC      H  973   2.623   1.081   2.554
   65EMC      H  974   2.758   1.112   2.442
   65EMC      H  975   2.732   0.947   2.501
   66EMC      C  976   2.491   1.877   0.695
   66EMC      C  977   2.531   1.931   0.830
   66EMC      O  978   2.567   1.824   0.918
   66EMC      C  979   2.464   1.767   0.986
   66EMC      O  980   2.347   1.799   0.979
   66EMC      O  981   2.515   1.669   1.064
   66EMC      C  982   2.417   1.600   1.142
   66EMC      H  983   2.572   1.815   0.653
   66EMC      H  984   2.469   1.959   0.625
   66EMC      H  985   2.403   1.813   0.702
   66EMC      H  986   2.620   1.995   0.820
   66EMC      H  987   2.452   1.994   0.873
   66EMC      H  988   2.366   1.669   1.211
   66EMC      H  989   2.468   1.524   1.201
   66EMC      H  990   2.344   1.551   1.077
   67EMC      C  991   3.138   2.463   3.794
   67EMC      C  992   3.191   2.487   3.933
   67EMC      O  993   3.158   2.620   3.977
   67EMC      C  994   3.247   2.716   3.941
   67EMC      O  995   3.348   2.700   3.876
   67EMC      O  996   3.201   2.834   3.989
   67EMC      C  997   3.285   2.946   3.959
   67EMC      H  998   3.029   2.481   3.790
   67EMC      H  999   3.157   2.359   3.763
   67EMC      H 1000   3.183   2.530   3.722
   67EMC      H 1001   3.143   2.418   4.004
   67EMC      H 1002   3.299   2.468   3.939
   67EMC      H 1003   3.385   2.932   4.003
   67EMC      H 1004   3.240   3.035   4.002
   67EMC      H 1005   3.292   2.960   3.851
   68EMC      C 1006   2.238   1.974   1.268
   68EMC      C 1007   2.383   2.005   1.296
   68EMC      O 1008   2.415   1.979   1.432
   68EMC      C 1009   2.391   2.081   1.518
   68EMC      O 1010   2.346   2.190   1.489
   68EMC      O 1011   2.427   2.041   1.643
   68EMC      C 1012   2.407   2.140   1.744
   68EMC      H 1013   2.215   1.870   1.296
   68EMC      H 1014   2.215   1.987   1.162
   68EMC      H 1015   2.172   2.038   1.327
   68EMC      H 1016   2.447   1.939   1.235
   68EMC      H 1017   2.409   2.108   1.267
   68EMC      H 1018   2.468   2.229   1.723
   68EMC      H 1019   2.438   2.097   1.839
   68EMC      H 1020   2.301   2.167   1.751
   69EMC      C 1021   2.173   3.086   2.144
   69EMC      C 1022   2.057   3.018   2.211
   69EMC      O 1023   1.976   3.113   2.281
   69EMC      C 1024   2.016   3.140   2.408
   69EMC      O 1025   2.111   3.091   2.466
   69EMC      O 1026   1.930   3.231   2.460
   69EMC      C 1027   1.960   3.268   2.595
   69EMC      H 1028   2.138   3.166   2.077
   69EMC      H 1029   2.232   3.014   2.085
   69EMC      H 1030   2.240   3.132   2.217
   69EMC      H 1031   1.992   2.972   2.134
   69EMC      H 1032   2.090   2.936   2.276
   69EMC      H 1033   1.955   3.181   2.662
   69EMC      H 1034   1.886   3.341   2.627
   69EMC      H 1035   2.059   3.315   2.601
   70EMC      C 1036   1.227   1.347   2.777
   70EMC      C 1037   1.095   1.420   2.770
   70EMC      O 1038   1.030   1.395   2.645
   70EMC      C 1039   1.066   1.477   2.544
   70EMC      O 1040   1.146   1.569   2.550
   70EMC      O 1041   0.996   1.440   2.433
   70EMC      C 1042   1.024   1.520   2.318
   70EMC      H 1043   1.213   1.239   2.760
   70EMC      H 1044   1.274   1.361   2.875
   70EMC      H 1045   1.296   1.382   2.700
   70EMC      H 1046   1.028   1.382   2.849
   70EMC      H 1047   1.107   1.527   2.789
   70EMC      H 1048   0.997   1.625   2.336
   70EMC      H 1049   0.963   1.482   2.236
   70EMC      H 1050   1.129   1.511   2.290
   71EMC      C 1051   2.451   3.395   3.175
   71EMC      C 1052   2.550   3.408   3.062
   71EMC      O 1053   2.483   3.420   2.937
   71EMC      C 1054   2.451   3.302   2.877
   71EMC      O 1055   2.475   3.191   2.920
   71EMC      O 1056   2.387   3.330   2.761
   71EMC      C 1057   2.348   3.215   2.686
   71EMC      H 1058   2.381   3.479   3.175
   71EMC      H 1059   2.503   3.392   3.272
   71EMC      H 1060   2.392   3.304   3.165
   71EMC      H 1061   2.609   3.501   3.075
   71EMC      H 1062   2.623   3.326   3.062
   71EMC      H 1063   2.436   3.155   2.658
   71EMC      H 1064   2.299   3.248   2.595
   71EMC      H 1065   2.278   3.154   2.744
   72EMC      C 1066   3.897   2.487   0.282
   72EMC      C 1067   3.836   2.382   0.192
   72EMC      O 1068   3.704   2.419   0.152
   72EMC      C 1069   3.605   2.383   0.238
   72EMC      O 1070   3.619   2.323   0.343
   72EMC      O 1071   3.488   2.426   0.187
   72EMC      C 1072   3.374   2.394   0.267
   72EMC      H 1073   3.896   2.585   0.233
   72EMC      H 1074   4.000   2.461   0.308
   72EMC      H 1075   3.840   2.497   0.375
   72EMC      H 1076   3.896   2.373   0.100
   72EMC      H 1077   3.838   2.282   0.239
   72EMC      H 1078   3.363   2.285   0.278
   72EMC      H 1079   3.285   2.432   0.217
   72EMC      H 1080   3.381   2.442   0.365
   73EMC      C 1081   2.977   1.251   3.879
   73EMC      C 1082   2.828   1.265   3.898
   73EMC      O 1083   2.772   1.353   3.800
   73EMC      C 1084   2.775   1.485   3.832
   73EMC      O 1085   2.819   1.533   3.935
   73EMC      O 1086   2.720   1.554   3.730
   73EMC      C 1087   2.716   1.695   3.751
   73EMC      H 1088   3.000   1.217   3.777
   73EMC      H 1089   3.019   1.179   3.950
   73EMC      H 1090   3.028   1.346   3.893
   73EMC      H 1091   2.780   1.166   3.884
   73EMC      H 1092   2.803   1.297   4.000
   73EMC      H 1093   2.655   1.720   3.839
   73EMC      H 1094   2.669   1.741   3.663
   73EMC      H 1095   2.817   1.735   3.761
   74EMC      C 1096   1.211   3.813   2.646
   74EMC      C 1097   1.339   3.815   2.566
   74EMC      O 1098   1.451   3.777   2.647
   74EMC      C 1099   1.508   3.879   2.717
   74EMC      O 1100   1.474   3.995   2.716
   74EMC      O 1101   1.611   3.826   2.789
   74EMC      C 1102   1.681   3.922   2.867
   74EMC      H 1103   1.196   3.714   2.691
   74EMC      H 1104   1.125   3.836   2.582
   74EMC      H 1105   1.214   3.885   2.727
   74EMC      H 1106   1.333   3.741   2.484
   74EMC      H 1107   1.355   3.913   2.518
   74EMC      H 1108   1.727   4.000   2.803
   74EMC      H 1109   1.762   3.871   2.920
   74EMC      H 1110   1.615   3.968   2.941
   75EMC      C 1111   1.448   3.479   1.152
   75EMC      C 1112   1.424   3.361   1.060
   75EMC      O 1113   1.319   3.390   0.968
   75EMC      C 1114   1.194   3.363   1.012
   75EMC      O 1115   1.164   3.319   1.121
   75EMC      O 1116   1.107   3.396   0.913
   75EMC      C 1117   0.970   3.373   0.947
   75EMC      H 1118   1.470   3.570   1.093
   75EMC      H 1119   1.533   3.460   1.219
   75EMC      H 1120   1.360   3.501   1.212
   75EMC      H 1121   1.515   3.341   1.001
   75EMC      H 1122   1.404   3.270   1.118
   75EMC      H 1123   0.952   3.266   0.968
   75EMC      H 1124   0.909   3.402   0.861
   75EMC      H 1125   0.940   3.434   1.032
   76EMC      C 1126   3.717   1.042   3.478
   76EMC      C 1127   3.668   0.951   3.367
   76EMC      O 1128   3.576   1.019   3.283
   76EMC      C 1129   3.446   1.016   3.324
   76EMC      O 1130   3.404   0.961   3.424
   76EMC      O 1131   3.372   1.084   3.234
   76EMC      C 1132   3.233   1.089   3.264
   76EMC      H 1133   3.761   1.134   3.436
   76EMC      H 1134   3.793   0.992   3.539
   76EMC      H 1135   3.635   1.073   3.542
   76EMC      H 1136   3.754   0.921   3.304
   76EMC      H 1137   3.626   0.858   3.408
   76EMC      H 1138   3.190   0.987   3.266
   76EMC      H 1139   3.182   1.146   3.186
   76EMC      H 1140   3.216   1.139   3.360
   77EMC      C 1141   1.864   0.284   2.423
   77EMC      C 1142   1.836   0.430   2.451
   77EMC      O 1143   1.954   0.496   2.498
   77EMC      C 1144   1.976   0.488   2.632
   77EMC      O 1145   1.905   0.431   2.713
   77EMC      O 1146   2.090   0.555   2.660
   77EMC      C 1147   2.125   0.555   2.798
   77EMC      H 1148   1.947   0.274   2.352
   77EMC      H 1149   1.776   0.234   2.382
   77EMC      H 1150   1.894   0.231   2.514
   77EMC      H 1151   1.806   0.480   2.358
   77EMC      H 1152   1.752   0.442   2.521
   77EMC      H 1153   2.048   0.604   2.858
   77EMC      H 1154   2.218   0.611   2.809
   77EMC      H 1155   2.142   0.453   2.834
   78EMC      C 1156   1.787   3.248   2.933
   78EMC      C 1157   1.670   3.153   2.939
   78EMC      O 1158   1.714   3.018   2.923
   78EMC      C 1159   1.726   2.975   2.795
   78EMC      O 1160   1.702   3.039   2.695
   78EMC      O 1161   1.769   2.846   2.798
   78EMC      C 1162   1.786   2.788   2.669
   78EMC      H 1163   1.862   3.222   3.008
   78EMC      H 1164   1.753   3.351   2.951
   78EMC      H 1165   1.836   3.244   2.836
   78EMC      H 1166   1.621   3.159   3.038
   78EMC      H 1167   1.593   3.179   2.865
   78EMC      H 1168   1.690   2.785   2.615
   78EMC      H 1169   1.820   2.685   2.682
   78EMC      H 1170   1.861   2.842   2.611
   79EMC      C 1171   1.783   2.028   2.979
   79EMC      C 1172   1.882   1.937   3.048
   79EMC      O 1173   1.819   1.865   3.154
   79EMC      C 1174   1.816   1.930   3.274
   79EMC      O 1175   1.862   2.040   3.297
   79EMC      O 1176   1.753   1.850   3.363
   79EMC      C 1177   1.744   1.905   3.494
   79EMC      H 1178   1.696   1.971   2.944
   79EMC      H 1179   1.829   2.078   2.893
   79EMC      H 1180   1.745   2.104   3.048
   79EMC      H 1181   1.918   1.861   2.976
   79EMC      H 1182   1.970   1.992   3.082
   79EMC      H 1183   1.844   1.923   3.536
   79EMC      H 1184   1.692   1.833   3.558
   79EMC      H 1185   1.686   1.998   3.493
   80EMC      C 1186   0.635   3.563   1.412
   80EMC      C 1187   0.640   3.563   1.563
   80EMC      O 1188   0.774   3.581   1.609
   80EMC      C 1189   0.847   3.467   1.620
   80EMC      O 1190   0.809   3.354   1.595
   80EMC      O 1191   0.971   3.501   1.664
   80EMC      C 1192   1.059   3.390   1.681
   80EMC      H 1193   0.679   3.655   1.371
   80EMC      H 1194   0.531   3.555   1.376
   80EMC      H 1195   0.692   3.480   1.370
   80EMC      H 1196   0.581   3.648   1.602
   80EMC      H 1197   0.594   3.472   1.604
   80EMC      H 1198   1.020   3.320   1.755
   80EMC      H 1199   1.155   3.428   1.716
   80EMC      H 1200   1.076   3.340   1.585
   81EMC      C 1201   1.514   1.919   0.145
   81EMC      C 1202   1.499   1.914   0.295
   81EMC      O 1203   1.524   2.042   0.353
   81EMC      C 1204   1.654   2.070   0.379
   81EMC      O 1205   1.749   1.996   0.359
   81EMC      O 1206   1.660   2.194   0.433
   81EMC      C 1207   1.793   2.237   0.466
   81EMC      H 1208   1.447   1.995   0.102
   81EMC      H 1209   1.489   1.822   0.100
   81EMC      H 1210   1.615   1.946   0.115
   81EMC      H 1211   1.396   1.886   0.322
   81EMC      H 1212   1.564   1.836   0.339
   81EMC      H 1213   1.837   2.170   0.542
   81EMC      H 1214   1.786   2.337   0.508
   81EMC      H 1215   1.855   2.241   0.377
   82EMC      C 1216   3.739   3.318   2.310
   82EMC      C 1217   3.625   3.233   2.360
   82EMC      O 1218   3.669   3.148   2.466
   82EMC      C 1219   3.722   3.029   2.427
   82EMC      O 1220   3.735   2.991   2.312
   82EMC      O 1221   3.758   2.961   2.538
   82EMC      C 1222   3.816   2.833   2.511
   82EMC      H 1223   3.784   3.376   2.392
   82EMC      H 1224   3.704   3.388   2.232
   82EMC      H 1225   3.818   3.257   2.267
   82EMC      H 1226   3.546   3.298   2.402
   82EMC      H 1227   3.578   3.176   2.279
   82EMC      H 1228   3.744   2.768   2.459
   82EMC      H 1229   3.841   2.787   2.607
   82EMC      H 1230   3.908   2.844   2.453
   83EMC      C 1231   2.831   3.893   0.491
   83EMC      C 1232   2.690   3.865   0.538
   83EMC      O 1233   2.659   3.942   0.654
   83EMC      C 1234   2.696   3.886   0.772
   83EMC      O 1235   2.750   3.778   0.787
   83EMC      O 1236   2.660   3.971   0.872
   83EMC      C 1237   2.693   3.925   1.003
   83EMC      H 1238   2.845   4.000   0.472
   83EMC      H 1239   2.852   3.838   0.398
   83EMC      H 1240   2.904   3.863   0.566
   83EMC      H 1241   2.618   3.895   0.460
   83EMC      H 1242   2.673   3.758   0.555
   83EMC      H 1243   2.640   3.831   1.025
   83EMC      H 1244   2.660   4.000   1.075
   83EMC      H 1245   2.801   3.911   1.013
   84EMC      C 1246   1.470   2.364   2.225
   84EMC      C 1247   1.584   2.402   2.317
   84EMC      O 1248   1.574   2.539   2.355
   84EMC      C 1249   1.631   2.628   2.269
   84EMC      O 1250   1.688   2.601   2.166
   84EMC      O 1251   1.613   2.752   2.320
   84EMC      C 1252   1.669   2.856   2.240
   84EMC      H 1253   1.373   2.386   2.273
   84EMC      H 1254   1.474   2.257   2.200
   84EMC      H 1255   1.473   2.421   2.133
   84EMC      H 1256   1.579   2.342   2.409
   84EMC      H 1257   1.681   2.379   2.271
   84EMC      H 1258   1.778   2.844   2.230
   84EMC      H 1259   1.649   2.952   2.289
   84EMC      H 1260   1.621   2.858   2.141
   85EMC      C 1261   1.916   3.346   2.128
   85EMC      C 1262   1.964   3.403   2.260
   85EMC      O 1263   1.858   3.409   2.354
   85EMC      C 1264   1.782   3.522   2.349
   85EMC      O 1265   1.797   3.616   2.273
   85EMC      O 1266   1.686   3.512   2.444
   85EMC      C 1267   1.598   3.625   2.450
   85EMC      H 1268   1.870   3.248   2.144
   85EMC      H 1269   1.999   3.336   2.058
   85EMC      H 1270   1.840   3.410   2.083
   85EMC      H 1271   2.041   3.337   2.303
   85EMC      H 1272   2.012   3.501   2.246
   85EMC      H 1273   1.654   3.716   2.474
   85EMC      H 1274   1.525   3.607   2.529
   85EMC      H 1275   1.544   3.637   2.356
   86EMC      C 1276   0.589   2.952   0.984
   86EMC      C 1277   0.700   3.050   1.016
   86EMC      O 1278   0.742   3.036   1.152
   86EMC      C 1279   0.670   3.107   1.243
   86EMC      O 1280   0.577   3.180   1.219
   86EMC      O 1281   0.723   3.082   1.365
   86EMC      C 1282   0.657   3.152   1.471
   86EMC      H 1283   0.621   2.849   1.005
   86EMC      H 1284   0.561   2.959   0.878
   86EMC      H 1285   0.501   2.971   1.045
   86EMC      H 1286   0.787   3.029   0.953
   86EMC      H 1287   0.669   3.153   0.994
   86EMC      H 1288   0.665   3.260   1.458
   86EMC      H 1289   0.707   3.125   1.565
   86EMC      H 1290   0.552   3.121   1.478
   87EMC      C 1291   0.429   1.774   3.679
   87EMC      C 1292   0.416   1.920   3.716
   87EMC      O 1293   0.534   1.991   3.682
   87EMC      C 1294   0.632   1.990   3.777
   87EMC      O 1295   0.627   1.935   3.885
   87EMC      O 1296   0.737   2.061   3.729
   87EMC      C 1297   0.848   2.069   3.819
   87EMC      H 1298   0.453   1.763   3.573
   87EMC      H 1299   0.335   1.720   3.700
   87EMC      H 1300   0.509   1.726   3.735
   87EMC      H 1301   0.333   1.965   3.659
   87EMC      H 1302   0.390   1.932   3.823
   87EMC      H 1303   0.819   2.118   3.913
   87EMC      H 1304   0.926   2.128   3.772
   87EMC      H 1305   0.888   1.969   3.839
   88EMC      C 1306   3.338   2.926   3.575
   88EMC      C 1307   3.414   2.814   3.642
   88EMC      O 1308   3.532   2.782   3.569
   88EMC      C 1309   3.515   2.693   3.467
   88EMC      O 1310   3.411   2.639   3.435
   88EMC      O 1311   3.636   2.674   3.408
   88EMC      C 1312   3.633   2.581   3.299
   88EMC      H 1313   3.403   3.014   3.563
   88EMC      H 1314   3.251   2.955   3.635
   88EMC      H 1315   3.305   2.898   3.476
   88EMC      H 1316   3.446   2.845   3.743
   88EMC      H 1317   3.350   2.725   3.656
   88EMC      H 1318   3.601   2.482   3.334
   88EMC      H 1319   3.735   2.573   3.259
   88EMC      H 1320   3.568   2.618   3.220
   89EMC      C 1321   2.133   1.577   2.620
   89EMC      C 1322   2.057   1.699   2.665
   89EMC      O 1323   2.117   1.755   2.783
   89EMC      C 1324   2.074   1.701   2.900
   89EMC      O 1325   1.992   1.612   2.914
   89EMC      O 1326   2.140   1.764   3.001
   89EMC      C 1327   2.105   1.717   3.131
   89EMC      H 1328   2.239   1.602   2.603
   89EMC      H 1329   2.091   1.538   2.526
   89EMC      H 1330   2.130   1.498   2.694
   89EMC      H 1331   2.061   1.777   2.588
   89EMC      H 1332   1.950   1.677   2.681
   89EMC      H 1333   1.998   1.734   3.151
   89EMC      H 1334   2.163   1.773   3.204
   89EMC      H 1335   2.130   1.611   3.142
   90EMC      C 1336   3.241   1.785   3.935
   90EMC      C 1337   3.318   1.774   3.805
   90EMC      O 1338   3.451   1.729   3.829
   90EMC      C 1339   3.541   1.828   3.857
   90EMC      O 1340   3.517   1.947   3.863
   90EMC      O 1341   3.662   1.770   3.877
   90EMC      C 1342   3.766   1.862   3.908
   90EMC      H 1343   3.243   1.690   3.989
   90EMC      H 1344   3.137   1.813   3.916
   90EMC      H 1345   3.286   1.860   4.000
   90EMC      H 1346   3.270   1.698   3.741
   90EMC      H 1347   3.315   1.868   3.748
   90EMC      H 1348   3.781   1.933   3.825
   90EMC      H 1349   3.858   1.806   3.922
   90EMC      H 1350   3.744   1.916   4.000
   91EMC      C 1351   2.019   2.034   2.690
   91EMC      C 1352   2.155   2.039   2.625
   91EMC      O 1353   2.257   1.998   2.717
   91EMC      C 1354   2.306   2.096   2.796
   91EMC      O 1355   2.273   2.213   2.796
   91EMC      O 1356   2.401   2.041   2.877
   91EMC      C 1357   2.462   2.134   2.967
   91EMC      H 1358   1.999   1.933   2.730
   91EMC      H 1359   1.940   2.060   2.618
   91EMC      H 1360   2.013   2.103   2.774
   91EMC      H 1361   2.158   1.969   2.540
   91EMC      H 1362   2.176   2.139   2.583
   91EMC      H 1363   2.514   2.213   2.911
   91EMC      H 1364   2.536   2.080   3.026
   91EMC      H 1365   2.387   2.176   3.034
   92EMC      C 1366   0.259   1.925   0.857
   92EMC      C 1367   0.233   2.007   0.982
   92EMC      O 1368   0.334   1.984   1.079
   92EMC      C 1369   0.313   1.878   1.161
   92EMC      O 1370   0.217   1.803   1.159
   92EMC      O 1371   0.417   1.870   1.247
   92EMC      C 1372   0.408   1.762   1.340
   92EMC      H 1373   0.359   1.947   0.817
   92EMC      H 1374   0.184   1.948   0.780
   92EMC      H 1375   0.255   1.819   0.879
   92EMC      H 1376   0.236   2.115   0.956
   92EMC      H 1377   0.132   1.988   1.022
   92EMC      H 1378   0.319   1.773   1.404
   92EMC      H 1379   0.496   1.765   1.404
   92EMC      H 1380   0.406   1.666   1.288
   93EMC      C 1381   2.186   3.561   0.438
   93EMC      C 1382   2.172   3.708   0.407
   93EMC      O 1383   2.251   3.786   0.496
   93EMC      C 1384   2.190   3.820   0.613
   93EMC      O 1385   2.077   3.790   0.647
   93EMC      O 1386   2.278   3.893   0.686
   93EMC      C 1387   2.226   3.935   0.813
   93EMC      H 1388   2.291   3.531   0.436
   93EMC      H 1389   2.130   3.500   0.366
   93EMC      H 1390   2.148   3.538   0.538
   93EMC      H 1391   2.210   3.728   0.305
   93EMC      H 1392   2.067   3.740   0.407
   93EMC      H 1393   2.138   4.000   0.799
   93EMC      H 1394   2.304   3.993   0.863
   93EMC      H 1395   2.202   3.849   0.875
   94EMC      C 1396   3.670   3.306   3.187
   94EMC      C 1397   3.802   3.240   3.218
   94EMC      O 1398   3.882   3.229   3.100
   94EMC      C 1399   3.859   3.119   3.025
   94EMC      O 1400   3.779   3.030   3.048
   94EMC      O 1401   3.942   3.124   2.917
   94EMC      C 1402   3.929   3.013   2.829
   94EMC      H 1403   3.686   3.405   3.141
   94EMC      H 1404   3.611   3.320   3.279
   94EMC      H 1405   3.611   3.247   3.117
   94EMC      H 1406   3.858   3.302   3.290
   94EMC      H 1407   3.787   3.142   3.266
   94EMC      H 1408   3.954   2.919   2.880
   94EMC      H 1409   4.000   3.027   2.747
   94EMC      H 1410   3.828   3.009   2.787
   95EMC      C 1411   2.908   2.211   0.744
   95EMC      C 1412   3.021   2.111   0.738
   95EMC      O 1413   2.975   1.980   0.769
   95EMC      C 1414   2.973   1.949   0.901
   95EMC      O 1415   3.007   2.021   0.993
   95EMC      O 1416   2.926   1.822   0.914
   95EMC      C 1417   2.920   1.776   1.049
   95EMC      H 1418   2.826   2.181   0.678
   95EMC      H 1419   2.942   2.311   0.714
   95EMC      H 1420   2.867   2.218   0.845
   95EMC      H 1421   3.061   2.108   0.635
   95EMC      H 1422   3.105   2.141   0.802
   95EMC      H 1423   3.020   1.775   1.094
   95EMC      H 1424   2.881   1.674   1.047
   95EMC      H 1425   2.851   1.838   1.107
   96EMC      C 1426   2.310   0.899   0.969
   96EMC      C 1427   2.162   0.871   0.981
   96EMC      O 1428   2.119   0.887   1.116
   96EMC      C 1429   2.132   0.777   1.195
   96EMC      O 1430   2.176   0.669   1.162
   96EMC      O 1431   2.087   0.810   1.319
   96EMC      C 1432   2.095   0.702   1.413
   96EMC      H 1433   2.334   0.999   1.007
   96EMC      H 1434   2.343   0.892   0.864
   96EMC      H 1435   2.369   0.828   1.028
   96EMC      H 1436   2.106   0.944   0.920
   96EMC      H 1437   2.137   0.771   0.942
   96EMC      H 1438   2.033   0.617   1.381
   96EMC      H 1439   2.056   0.738   1.509
   96EMC      H 1440   2.198   0.672   1.427
   97EMC      C 1441   0.573   3.257   2.866
   97EMC      C 1442   0.536   3.367   2.769
   97EMC      O 1443   0.649   3.405   2.690
   97EMC      C 1444   0.731   3.499   2.745
   97EMC      O 1445   0.716   3.552   2.853
   97EMC      O 1446   0.832   3.522   2.658
   97EMC      C 1447   0.926   3.620   2.704
   97EMC      H 1448   0.615   3.171   2.812
   97EMC      H 1449   0.485   3.224   2.923
   97EMC      H 1450   0.649   3.290   2.937
   97EMC      H 1451   0.459   3.331   2.700
   97EMC      H 1452   0.493   3.454   2.822
   97EMC      H 1453   0.876   3.717   2.718
   97EMC      H 1454   1.002   3.632   2.627
   97EMC      H 1455   0.974   3.587   2.796
   98EMC      C 1456   3.014   0.799   2.396
   98EMC      C 1457   3.056   0.670   2.462
   98EMC      O 1458   3.180   0.686   2.530
   98EMC      C 1459   3.291   0.668   2.453
   98EMC      O 1460   3.293   0.639   2.335
   98EMC      O 1461   3.400   0.687   2.532
   98EMC      C 1462   3.524   0.671   2.464
   98EMC      H 1463   3.009   0.880   2.470
   98EMC      H 1464   2.915   0.788   2.349
   98EMC      H 1465   3.085   0.830   2.320
   98EMC      H 1466   2.981   0.641   2.538
   98EMC      H 1467   3.060   0.587   2.389
   98EMC      H 1468   3.534   0.568   2.425
   98EMC      H 1469   3.605   0.688   2.536
   98EMC      H 1470   3.534   0.743   2.383
   99EMC      C 1471   2.881   3.248   1.854
   99EMC      C 1472   2.848   3.197   1.992
   99EMC      O 1473   2.959   3.127   2.048
   99EMC      C 1474   2.967   2.995   2.016
   99EMC      O 1475   2.888   2.933   1.946
   99EMC      O 1476   3.077   2.943   2.076
   99EMC      C 1477   3.097   2.804   2.051
   99EMC      H 1478   2.971   3.311   1.856
   99EMC      H 1479   2.798   3.307   1.814
   99EMC      H 1480   2.901   3.166   1.786
   99EMC      H 1481   2.827   3.282   2.059
   99EMC      H 1482   2.757   3.135   1.992
   99EMC      H 1483   3.013   2.745   2.089
   99EMC      H 1484   3.187   2.773   2.103
   99EMC      H 1485   3.111   2.786   1.944
  100EMC      C 1486   2.059   2.790   0.713
  100EMC      C 1487   1.960   2.676   0.707
  100EMC      O 1488   1.966   2.612   0.580
  100EMC      C 1489   1.887   2.667   0.484
  100EMC      O 1490   1.815   2.764   0.496
  100EMC      O 1491   1.904   2.595   0.370
  100EMC      C 1492   1.827   2.642   0.260
  100EMC      H 1493   2.161   2.755   0.691
  100EMC      H 1494   2.059   2.836   0.813
  100EMC      H 1495   2.035   2.867   0.640
  100EMC      H 1496   1.987   2.600   0.783
  100EMC      H 1497   1.858   2.710   0.732
  100EMC      H 1498   1.719   2.636   0.282
  100EMC      H 1499   1.847   2.577   0.174
  100EMC      H 1500   1.856   2.744   0.233
  101EMC      C 1501   2.184   3.822   2.773
  101EMC      C 1502   2.169   3.672   2.777
  101EMC      O 1503   2.294   3.609   2.807
  101EMC      C 1504   2.373   3.585   2.699
  101EMC      O 1505   2.347   3.610   2.583
  101EMC      O 1506   2.487   3.526   2.744
  101EMC      C 1507   2.580   3.494   2.641
  101EMC      H 1508   2.227   3.859   2.868
  101EMC      H 1509   2.087   3.871   2.757
  101EMC      H 1510   2.252   3.853   2.694
  101EMC      H 1511   2.099   3.644   2.858
  101EMC      H 1512   2.125   3.633   2.684
  101EMC      H 1513   2.536   3.422   2.569
  101EMC      H 1514   2.667   3.447   2.687
  101EMC      H 1515   2.613   3.584   2.589
  102EMC      C 1516   2.008   1.216   0.172
  102EMC      C 1517   2.078   1.222   0.306
  102EMC      O 1518   2.016   1.132   0.398
  102EMC      C 1519   1.910   1.183   0.466
  102EMC      O 1520   1.864   1.295   0.455
  102EMC      O 1521   1.863   1.087   0.549
  102EMC      C 1522   1.750   1.127   0.627
  102EMC      H 1523   2.007   1.113   0.133
  102EMC      H 1524   2.060   1.280   0.098
  102EMC      H 1525   1.905   1.248   0.179
  102EMC      H 1526   2.183   1.189   0.295
  102EMC      H 1527   2.081   1.325   0.344
  102EMC      H 1528   1.776   1.211   0.692
  102EMC      H 1529   1.721   1.042   0.690
  102EMC      H 1530   1.666   1.152   0.563
  103EMC      C 1531   3.751   3.930   0.863
  103EMC      C 1532   3.790   3.799   0.799
  103EMC      O 1533   3.678   3.709   0.795
  103EMC      C 1534   3.661   3.634   0.907
  103EMC      O 1535   3.731   3.636   1.007
  103EMC      O 1536   3.552   3.556   0.888
  103EMC      C 1537   3.522   3.470   0.998
  103EMC      H 1538   3.665   3.975   0.811
  103EMC      H 1539   3.835   4.001   0.861
  103EMC      H 1540   3.722   3.916   0.967
  103EMC      H 1541   3.820   3.816   0.694
  103EMC      H 1542   3.877   3.753   0.849
  103EMC      H 1543   3.605   3.400   1.017
  103EMC      H 1544   3.433   3.412   0.973
  103EMC      H 1545   3.500   3.529   1.088
  104EMC      C 1546   3.256   2.068   0.421
  104EMC      C 1547   3.371   2.033   0.330
  104EMC      O 1548   3.386   1.892   0.319
  104EMC      C 1549   3.463   1.834   0.416
  104EMC      O 1550   3.518   1.892   0.507
  104EMC      O 1551   3.467   1.701   0.392
  104EMC      C 1552   3.545   1.627   0.486
  104EMC      H 1553   3.163   2.020   0.386
  104EMC      H 1554   3.240   2.177   0.424
  104EMC      H 1555   3.273   2.033   0.523
  104EMC      H 1556   3.350   2.071   0.228
  104EMC      H 1557   3.464   2.082   0.362
  104EMC      H 1558   3.650   1.661   0.484
  104EMC      H 1559   3.542   1.522   0.458
  104EMC      H 1560   3.503   1.637   0.587
  105EMC      C 1561   2.410   3.055   3.775
  105EMC      C 1562   2.400   3.016   3.920
  105EMC      O 1563   2.441   2.880   3.939
  105EMC      C 1564   2.343   2.787   3.921
  105EMC      O 1565   2.227   2.809   3.892
  105EMC      O 1566   2.398   2.665   3.943
  105EMC      C 1567   2.306   2.557   3.928
  105EMC      H 1568   2.512   3.038   3.737
  105EMC      H 1569   2.385   3.161   3.761
  105EMC      H 1570   2.343   2.995   3.713
  105EMC      H 1571   2.468   3.078   3.980
  105EMC      H 1572   2.299   3.034   3.960
  105EMC      H 1573   2.223   2.565   4.000
  105EMC      H 1574   2.359   2.464   3.947
  105EMC      H 1575   2.267   2.554   3.826
  106EMC      C 1576   2.972   3.794   1.885
  106EMC      C 1577   3.029   3.903   1.797
  106EMC      O 1578   3.160   3.868   1.752
  106EMC      C 1579   3.261   3.902   1.836
  106EMC      O 1580   3.250   3.958   1.943
  106EMC      O 1581   3.377   3.862   1.779
  106EMC      C 1582   3.493   3.892   1.857
  106EMC      H 1583   2.972   3.697   1.832
  106EMC      H 1584   2.869   3.817   1.915
  106EMC      H 1585   3.032   3.780   1.975
  106EMC      H 1586   2.966   3.914   1.707
  106EMC      H 1587   3.028   4.000   1.848
  106EMC      H 1588   3.503   4.000   1.872
  106EMC      H 1589   3.581   3.856   1.802
  106EMC      H 1590   3.489   3.840   1.953
  107EMC      C 1591   1.618   2.832   1.344
  107EMC      C 1592   1.480   2.878   1.305
  107EMC      O 1593   1.399   2.768   1.262
  107EMC      C 1594   1.411   2.735   1.131
  107EMC      O 1595   1.481   2.790   1.049
  107EMC      O 1596   1.329   2.629   1.107
  107EMC      C 1597   1.331   2.583   0.972
  107EMC      H 1598   1.612   2.754   1.422
  107EMC      H 1599   1.678   2.915   1.382
  107EMC      H 1600   1.670   2.788   1.259
  107EMC      H 1601   1.429   2.923   1.392
  107EMC      H 1602   1.484   2.957   1.228
  107EMC      H 1603   1.297   2.663   0.904
  107EMC      H 1604   1.262   2.499   0.964
  107EMC      H 1605   1.431   2.549   0.945
  108EMC      C 1606   0.375   2.035   1.774
  108EMC      C 1607   0.265   2.093   1.688
  108EMC      O 1608   0.284   2.234   1.670
  108EMC      C 1609   0.232   2.312   1.768
  108EMC      O 1610   0.171   2.275   1.867
  108EMC      O 1611   0.259   2.442   1.737
  108EMC      C 1612   0.209   2.536   1.831
  108EMC      H 1613   0.473   2.057   1.730
  108EMC      H 1614   0.364   1.926   1.782
  108EMC      H 1615   0.375   2.078   1.874
  108EMC      H 1616   0.267   2.048   1.588
  108EMC      H 1617   0.166   2.071   1.730
  108EMC      H 1618   0.099   2.530   1.839
  108EMC      H 1619   0.235   2.636   1.797
  108EMC      H 1620   0.255   2.520   1.929
  109EMC      C 1621   3.634   2.756   2.840
  109EMC      C 1622   3.571   2.809   2.966
  109EMC      O 1623   3.496   2.707   3.033
  109EMC      C 1624   3.368   2.693   2.990
  109EMC      O 1625   3.312   2.758   2.904
  109EMC      O 1626   3.311   2.593   3.062
  109EMC      C 1627   3.175   2.567   3.028
  109EMC      H 1628   3.697   2.668   2.862
  109EMC      H 1629   3.697   2.832   2.793
  109EMC      H 1630   3.559   2.724   2.769
  109EMC      H 1631   3.650   2.842   3.037
  109EMC      H 1632   3.509   2.898   2.946
  109EMC      H 1633   3.112   2.655   3.047
  109EMC      H 1634   3.139   2.485   3.091
  109EMC      H 1635   3.167   2.536   2.924
  110EMC      C 1636   2.607   2.545   1.252
  110EMC      C 1637   2.642   2.468   1.378
  110EMC      O 1638   2.752   2.381   1.355
  110EMC      C 1639   2.720   2.258   1.306
  110EMC      O 1640   2.608   2.218   1.281
  110EMC      O 1641   2.835   2.188   1.290
  110EMC      C 1642   2.816   2.057   1.238
  110EMC      H 1643   2.695   2.600   1.215
  110EMC      H 1644   2.526   2.616   1.271
  110EMC      H 1645   2.576   2.477   1.173
  110EMC      H 1646   2.673   2.539   1.457
  110EMC      H 1647   2.554   2.414   1.418
  110EMC      H 1648   2.755   1.996   1.307
  110EMC      H 1649   2.914   2.009   1.230
  110EMC      H 1650   2.771   2.060   1.139
  111EMC      C 1651   1.992   2.206   0.895
  111EMC      C 1652   1.978   2.320   0.798
  111EMC      O 1653   2.106   2.370   0.758
  111EMC      C 1654   2.160   2.464   0.840
  111EMC      O 1655   2.109   2.509   0.941
  111EMC      O 1656   2.280   2.499   0.789
  111EMC      C 1657   2.348   2.599   0.865
  111EMC      H 1658   2.054   2.126   0.852
  111EMC      H 1659   1.894   2.164   0.921
  111EMC      H 1660   2.041   2.238   0.987
  111EMC      H 1661   1.927   2.285   0.706
  111EMC      H 1662   1.914   2.400   0.839
  111EMC      H 1663   2.290   2.692   0.869
  111EMC      H 1664   2.443   2.620   0.816
  111EMC      H 1665   2.370   2.562   0.966
  112EMC      C 1666   2.973   0.722   3.584
  112EMC      C 1667   3.094   0.734   3.494
  112EMC      O 1668   3.152   0.606   3.469
  112EMC      C 1669   3.242   0.565   3.562
  112EMC      O 1670   3.277   0.626   3.661
  112EMC      O 1671   3.288   0.443   3.524
  112EMC      C 1672   3.384   0.387   3.613
  112EMC      H 1673   2.900   0.652   3.541
  112EMC      H 1674   2.925   0.819   3.598
  112EMC      H 1675   3.001   0.682   3.682
  112EMC      H 1676   3.063   0.775   3.396
  112EMC      H 1677   3.167   0.805   3.535
  112EMC      H 1678   3.474   0.451   3.618
  112EMC      H 1679   3.414   0.289   3.574
  112EMC      H 1680   3.341   0.372   3.712
  113EMC      C 1681   0.789   2.436   2.108
  113EMC      C 1682   0.891   2.489   2.206
  113EMC      O 1683   0.835   2.594   2.284
  113EMC      C 1684   0.843   2.718   2.229
  113EMC      O 1685   0.893   2.747   2.122
  113EMC      O 1686   0.785   2.806   2.316
  113EMC      C 1687   0.787   2.941   2.271
  113EMC      H 1688   0.698   2.403   2.160
  113EMC      H 1689   0.830   2.351   2.051
  113EMC      H 1690   0.758   2.513   2.037
  113EMC      H 1691   0.920   2.409   2.276
  113EMC      H 1692   0.983   2.521   2.155
  113EMC      H 1693   0.890   2.977   2.257
  113EMC      H 1694   0.739   3.003   2.347
  113EMC      H 1695   0.731   2.951   2.178
  114EMC      C 1696   2.494   0.875   2.917
  114EMC      C 1697   2.457   0.977   3.023
  114EMC      O 1698   2.361   0.923   3.113
  114EMC      C 1699   2.231   0.936   3.074
  114EMC      O 1700   2.191   0.989   2.972
  114EMC      O 1701   2.153   0.880   3.170
  114EMC      C 1702   2.013   0.887   3.143
  114EMC      H 1703   2.530   0.783   2.964
  114EMC      H 1704   2.573   0.914   2.851
  114EMC      H 1705   2.408   0.849   2.856
  114EMC      H 1706   2.546   1.003   3.082
  114EMC      H 1707   2.422   1.071   2.977
  114EMC      H 1708   1.980   0.992   3.135
  114EMC      H 1709   1.960   0.840   3.225
  114EMC      H 1710   1.990   0.833   3.051
  115EMC      C 1711   1.602   2.404   0.709
  115EMC      C 1712   1.594   2.256   0.738
  115EMC      O 1713   1.458   2.216   0.757
  115EMC      C 1714   1.411   2.230   0.884
  115EMC      O 1715   1.472   2.272   0.980
  115EMC      O 1716   1.282   2.188   0.885
  115EMC      C 1717   1.219   2.197   1.013
  115EMC      H 1718   1.540   2.430   0.622
  115EMC      H 1719   1.705   2.434   0.688
  115EMC      H 1720   1.565   2.463   0.792
  115EMC      H 1721   1.633   2.199   0.652
  115EMC      H 1722   1.657   2.229   0.824
  115EMC      H 1723   1.271   2.134   1.086
  115EMC      H 1724   1.116   2.160   1.002
  115EMC      H 1725   1.215   2.300   1.046
  116EMC      C 1726   0.222   1.259   2.876
  116EMC      C 1727   0.270   1.357   2.772
  116EMC      O 1728   0.191   1.348   2.654
  116EMC      C 1729   0.230   1.253   2.564
  116EMC      O 1730   0.325   1.178   2.575
  116EMC      O 1731   0.144   1.258   2.459
  116EMC      C 1732   0.174   1.164   2.356
  116EMC      H 1733   0.116   1.275   2.898
  116EMC      H 1734   0.279   1.270   2.969
  116EMC      H 1735   0.232   1.156   2.842
  116EMC      H 1736   0.260   1.460   2.810
  116EMC      H 1737   0.377   1.343   2.750
  116EMC      H 1738   0.274   1.182   2.314
  116EMC      H 1739   0.100   1.175   2.277
  116EMC      H 1740   0.167   1.062   2.394
  117EMC      C 1741   1.259   2.486   1.315
  117EMC      C 1742   1.405   2.503   1.351
  117EMC      O 1743   1.465   2.376   1.377
  117EMC      C 1744   1.453   2.331   1.505
  117EMC      O 1745   1.397   2.389   1.596
  117EMC      O 1746   1.515   2.211   1.513
  117EMC      C 1747   1.510   2.152   1.643
  117EMC      H 1748   1.247   2.418   1.230
  117EMC      H 1749   1.214   2.583   1.289
  117EMC      H 1750   1.203   2.443   1.398
  117EMC      H 1751   1.459   2.547   1.265
  117EMC      H 1752   1.418   2.572   1.435
  117EMC      H 1753   1.561   2.216   1.716
  117EMC      H 1754   1.563   2.056   1.639
  117EMC      H 1755   1.407   2.134   1.673
  118EMC      C 1756   0.690   2.785   0.178
  118EMC      C 1757   0.667   2.724   0.315
  118EMC      O 1758   0.717   2.810   0.417
  118EMC      C 1759   0.849   2.794   0.447
  118EMC      O 1760   0.925   2.714   0.396
  118EMC      O 1761   0.881   2.882   0.545
  118EMC      C 1762   1.017   2.876   0.587
  118EMC      H 1763   0.646   2.885   0.172
  118EMC      H 1764   0.646   2.722   0.100
  118EMC      H 1765   0.796   2.796   0.158
  118EMC      H 1766   0.559   2.714   0.333
  118EMC      H 1767   0.710   2.623   0.322
  118EMC      H 1768   1.041   2.776   0.628
  118EMC      H 1769   1.032   2.950   0.665
  118EMC      H 1770   1.084   2.899   0.504
  119EMC      C 1771   0.727   0.760   2.175
  119EMC      C 1772   0.580   0.780   2.205
  119EMC      O 1773   0.559   0.906   2.268
  119EMC      C 1774   0.573   0.906   2.403
  119EMC      O 1775   0.601   0.810   2.473
  119EMC      O 1776   0.549   1.032   2.448
  119EMC      C 1777   0.560   1.047   2.589
  119EMC      H 1778   0.766   0.843   2.114
  119EMC      H 1779   0.743   0.666   2.120
  119EMC      H 1780   0.786   0.757   2.266
  119EMC      H 1781   0.523   0.781   2.110
  119EMC      H 1782   0.540   0.697   2.264
  119EMC      H 1783   0.486   0.983   2.641
  119EMC      H 1784   0.539   1.151   2.614
  119EMC      H 1785   0.661   1.023   2.623
  120EMC      C 1786   1.021   2.521   2.544
  120EMC      C 1787   1.102   2.411   2.480
  120EMC      O 1788   1.033   2.286   2.489
  120EMC      C 1789   1.053   2.217   2.604
  120EMC      O 1790   1.124   2.250   2.698
  120EMC      O 1791   0.981   2.102   2.597
  120EMC      C 1792   0.993   2.019   2.712
  120EMC      H 1793   0.922   2.528   2.498
  120EMC      H 1794   1.072   2.618   2.531
  120EMC      H 1795   1.007   2.504   2.650
  120EMC      H 1796   1.116   2.432   2.373
  120EMC      H 1797   1.203   2.404   2.524
  120EMC      H 1798   1.097   1.986   2.726
  120EMC      H 1799   0.931   1.930   2.696
  120EMC      H 1800   0.956   2.070   2.801
  121EMC      C 1801   1.597   0.299   0.732
  121EMC      C 1802   1.459   0.258   0.687
  121EMC      O 1803   1.447   0.268   0.545
  121EMC      C 1804   1.411   0.391   0.499
  121EMC      O 1805   1.388   0.490   0.566
  121EMC      O 1806   1.405   0.384   0.363
  121EMC      C 1807   1.368   0.507   0.300
  121EMC      H 1808   1.674   0.239   0.681
  121EMC      H 1809   1.608   0.285   0.841
  121EMC      H 1810   1.617   0.403   0.709
  121EMC      H 1811   1.441   0.152   0.713
  121EMC      H 1812   1.381   0.316   0.739
  121EMC      H 1813   1.267   0.538   0.333
  121EMC      H 1814   1.365   0.490   0.192
  121EMC      H 1815   1.441   0.585   0.322
  122EMC      C 1816   0.171   3.129   1.249
  122EMC      C 1817   0.302   3.054   1.241
  122EMC      O 1818   0.280   2.919   1.202
  122EMC      C 1819   0.253   2.833   1.303
  122EMC      O 1820   0.246   2.860   1.422
  122EMC      O 1821   0.234   2.710   1.250
  122EMC      C 1822   0.205   2.608   1.346
  122EMC      H 1823   0.117   3.123   1.154
  122EMC      H 1824   0.188   3.235   1.273
  122EMC      H 1825   0.106   3.087   1.326
  122EMC      H 1826   0.366   3.100   1.163
  122EMC      H 1827   0.358   3.061   1.335
  122EMC      H 1828   0.288   2.597   1.417
  122EMC      H 1829   0.193   2.514   1.293
  122EMC      H 1830   0.112   2.631   1.399
  123EMC      C 1831   2.140   2.250   0.303
  123EMC      C 1832   2.172   2.215   0.159
  123EMC      O 1833   2.213   2.078   0.148
  123EMC      C 1834   2.345   2.056   0.168
  123EMC      O 1835   2.430   2.140   0.194
  123EMC      O 1836   2.368   1.923   0.155
  123EMC      C 1837   2.504   1.885   0.173
  123EMC      H 1838   2.065   2.181   0.343
  123EMC      H 1839   2.103   2.352   0.311
  123EMC      H 1840   2.229   2.240   0.366
  123EMC      H 1841   2.081   2.226   0.098
  123EMC      H 1842   2.246   2.283   0.116
  123EMC      H 1843   2.568   1.933   0.098
  123EMC      H 1844   2.511   1.776   0.160
  123EMC      H 1845   2.537   1.909   0.274
  124EMC      C 1846   3.762   3.409   1.878
  124EMC      C 1847   3.708   3.448   1.743
  124EMC      O 1848   3.570   3.485   1.752
  124EMC      C 1849   3.482   3.382   1.742
  124EMC      O 1850   3.510   3.265   1.726
  124EMC      O 1851   3.357   3.433   1.753
  124EMC      C 1852   3.253   3.335   1.744
  124EMC      H 1853   3.747   3.490   1.951
  124EMC      H 1854   3.869   3.386   1.873
  124EMC      H 1855   3.710   3.321   1.917
  124EMC      H 1856   3.762   3.537   1.706
  124EMC      H 1857   3.724   3.369   1.668
  124EMC      H 1858   3.256   3.285   1.646
  124EMC      H 1859   3.157   3.387   1.754
  124EMC      H 1860   3.262   3.263   1.825
  125EMC      C 1861   0.997   3.756   0.992
  125EMC      C 1862   1.031   3.830   1.119
  125EMC      O 1863   1.137   3.763   1.189
  125EMC      C 1864   1.097   3.664   1.273
  125EMC      O 1865   0.982   3.628   1.293
  125EMC      O 1866   1.208   3.611   1.330
  125EMC      C 1867   1.180   3.505   1.422
  125EMC      H 1868   1.086   3.745   0.928
  125EMC      H 1869   0.920   3.811   0.935
  125EMC      H 1870   0.959   3.656   1.013
  125EMC      H 1871   1.068   3.931   1.095
  125EMC      H 1872   0.943   3.844   1.183
  125EMC      H 1873   1.118   3.541   1.506
  125EMC      H 1874   1.276   3.470   1.463
  125EMC      H 1875   1.132   3.422   1.371
  126EMC      C 1876   1.866   0.198   1.726
  126EMC      C 1877   1.953   0.241   1.841
  126EMC      O 1878   1.879   0.244   1.963
  126EMC      C 1879   1.812   0.360   1.988
  126EMC      O 1880   1.811   0.459   1.917
  126EMC      O 1881   1.747   0.346   2.106
  126EMC      C 1882   1.672   0.462   2.144
  126EMC      H 1883   1.820   0.100   1.748
  126EMC      H 1884   1.924   0.189   1.634
  126EMC      H 1885   1.784   0.268   1.709
  126EMC      H 1886   2.035   0.168   1.855
  126EMC      H 1887   2.002   0.338   1.821
  126EMC      H 1888   1.739   0.549   2.157
  126EMC      H 1889   1.624   0.441   2.240
  126EMC      H 1890   1.595   0.483   2.071
  127EMC      C 1891   0.494   2.624   2.123
  127EMC      C 1892   0.485   2.774   2.108
  127EMC      O 1893   0.376   2.810   2.023
  127EMC      C 1894   0.405   2.812   1.890
  127EMC      O 1895   0.513   2.787   1.839
  127EMC      O 1896   0.292   2.847   1.823
  127EMC      C 1897   0.308   2.853   1.682
  127EMC      H 1898   0.398   2.583   2.160
  127EMC      H 1899   0.573   2.597   2.194
  127EMC      H 1900   0.514   2.576   2.028
  127EMC      H 1901   0.465   2.820   2.207
  127EMC      H 1902   0.580   2.817   2.073
  127EMC      H 1903   0.383   2.929   1.654
  127EMC      H 1904   0.213   2.882   1.638
  127EMC      H 1905   0.336   2.756   1.642
  128EMC      C 1906   0.836   3.312   0.441
  128EMC      C 1907   0.685   3.307   0.439
  128EMC      O 1908   0.629   3.435   0.473
  128EMC      C 1909   0.613   3.457   0.606
  128EMC      O 1910   0.640   3.380   0.696
  128EMC      O 1911   0.561   3.581   0.621
  128EMC      C 1912   0.537   3.618   0.757
  128EMC      H 1913   0.873   3.391   0.375
  128EMC      H 1914   0.878   3.216   0.409
  128EMC      H 1915   0.873   3.335   0.541
  128EMC      H 1916   0.650   3.284   0.337
  128EMC      H 1917   0.646   3.228   0.503
  128EMC      H 1918   0.465   3.550   0.804
  128EMC      H 1919   0.495   3.719   0.758
  128EMC      H 1920   0.631   3.619   0.813
  129EMC      C 1921   3.019   1.769   0.203
  129EMC      C 1922   2.886   1.730   0.262
  129EMC      O 1923   2.795   1.841   0.258
  129EMC      C 1924   2.803   1.925   0.365
  129EMC      O 1925   2.877   1.914   0.460
  129EMC      O 1926   2.711   2.023   0.346
  129EMC      C 1927   2.708   2.120   0.451
  129EMC      H 1928   3.007   1.808   0.100
  129EMC      H 1929   3.087   1.683   0.199
  129EMC      H 1930   3.067   1.848   0.261
  129EMC      H 1931   2.841   1.650   0.201
  129EMC      H 1932   2.897   1.690   0.363
  129EMC      H 1933   2.680   2.072   0.547
  129EMC      H 1934   2.631   2.194   0.427
  129EMC      H 1935   2.804   2.171   0.460
  130EMC      C 1936   0.217   1.846   3.116
  130EMC      C 1937   0.212   1.981   3.185
  130EMC      O 1938   0.309   2.069   3.129
  130EMC      C 1939   0.433   2.061   3.185
  130EMC      O 1940   0.467   1.987   3.275
  130EMC      O 1941   0.513   2.150   3.122
  130EMC      C 1942   0.647   2.153   3.170
  130EMC      H 1943   0.204   1.857   3.008
  130EMC      H 1944   0.138   1.780   3.154
  130EMC      H 1945   0.313   1.798   3.132
  130EMC      H 1946   0.113   2.027   3.167
  130EMC      H 1947   0.222   1.971   3.294
  130EMC      H 1948   0.649   2.182   3.277
  130EMC      H 1949   0.703   2.228   3.113
  130EMC      H 1950   0.695   2.056   3.156
  131EMC      C 1951   2.887   1.564   2.744
  131EMC      C 1952   2.921   1.497   2.875
  131EMC      O 1953   2.943   1.357   2.856
  131EMC      C 1954   2.831   1.280   2.861
  131EMC      O 1955   2.717   1.319   2.880
  131EMC      O 1956   2.868   1.151   2.841
  131EMC      C 1957   2.760   1.058   2.844
  131EMC      H 1958   2.965   1.546   2.669
  131EMC      H 1959   2.876   1.673   2.758
  131EMC      H 1960   2.794   1.526   2.703
  131EMC      H 1961   3.015   1.539   2.915
  131EMC      H 1962   2.844   1.516   2.951
  131EMC      H 1963   2.710   1.059   2.942
  131EMC      H 1964   2.800   0.958   2.827
  131EMC      H 1965   2.688   1.080   2.764
  132EMC      C 1966   2.082   1.244   2.790
  132EMC      C 1967   1.942   1.195   2.819
  132EMC      O 1968   1.846   1.298   2.795
  132EMC      C 1969   1.824   1.382   2.900
  132EMC      O 1970   1.877   1.377   3.009
  132EMC      O 1971   1.732   1.474   2.861
  132EMC      C 1972   1.698   1.569   2.962
  132EMC      H 1973   2.089   1.282   2.687
  132EMC      H 1974   2.155   1.163   2.803
  132EMC      H 1975   2.110   1.326   2.856
  132EMC      H 1976   1.917   1.112   2.751
  132EMC      H 1977   1.934   1.155   2.921
  132EMC      H 1978   1.655   1.519   3.050
  132EMC      H 1979   1.624   1.637   2.920
  132EMC      H 1980   1.786   1.627   2.990
  133EMC      C 1981   2.689   2.004   1.650
  133EMC      C 1982   2.800   2.058   1.562
  133EMC      O 1983   2.865   1.952   1.492
  133EMC      C 1984   2.966   1.892   1.560
  133EMC      O 1985   3.005   1.920   1.672
  133EMC      O 1986   3.017   1.794   1.481
  133EMC      C 1987   3.125   1.722   1.540
  133EMC      H 1988   2.618   1.946   1.590
  133EMC      H 1989   2.634   2.086   1.698
  133EMC      H 1990   2.728   1.938   1.726
  133EMC      H 1991   2.757   2.125   1.486
  133EMC      H 1992   2.871   2.119   1.620
  133EMC      H 1993   3.210   1.789   1.561
  133EMC      H 1994   3.158   1.646   1.468
  133EMC      H 1995   3.092   1.671   1.631
  134EMC      C 1996   1.415   1.952   0.602
  134EMC      C 1997   1.336   2.066   0.543
  134EMC      O 1998   1.230   2.105   0.631
  134EMC      C 1999   1.114   2.035   0.617
  134EMC      O 2000   1.094   1.945   0.538
  134EMC      O 2001   1.025   2.083   0.707
  134EMC      C 2002   0.898   2.018   0.704
  134EMC      H 2003   1.453   1.979   0.702
  134EMC      H 2004   1.500   1.926   0.538
  134EMC      H 2005   1.353   1.863   0.615
  134EMC      H 2006   1.401   2.154   0.531
  134EMC      H 2007   1.298   2.041   0.443
  134EMC      H 2008   0.850   2.032   0.605
  134EMC      H 2009   0.834   2.065   0.779
  134EMC      H 2010   0.908   1.912   0.727
  135EMC      C 2011   0.805   2.821   1.391
  135EMC      C 2012   0.897   2.704   1.365
  135EMC      O 2013   0.844   2.621   1.262
  135EMC      C 2014   0.756   2.526   1.303
  135EMC      O 2015   0.720   2.506   1.417
  135EMC      O 2016   0.716   2.456   1.194
  135EMC      C 2017   0.623   2.352   1.223
  135EMC      H 2018   0.788   2.878   1.298
  135EMC      H 2019   0.848   2.889   1.466
  135EMC      H 2020   0.707   2.788   1.426
  135EMC      H 2021   0.995   2.741   1.330
  135EMC      H 2022   0.916   2.647   1.458
  135EMC      H 2023   0.667   2.277   1.290
  135EMC      H 2024   0.597   2.302   1.129
  135EMC      H 2025   0.531   2.393   1.266
  136EMC      C 2026   2.989   0.803   2.038
  136EMC      C 2027   3.137   0.813   2.067
  136EMC      O 2028   3.212   0.805   1.945
  136EMC      C 2029   3.242   0.679   1.903
  136EMC      O 2030   3.211   0.576   1.959
  136EMC      O 2031   3.313   0.690   1.788
  136EMC      C 2032   3.351   0.564   1.732
  136EMC      H 2033   2.958   0.881   1.967
  136EMC      H 2034   2.931   0.815   2.131
  136EMC      H 2035   2.963   0.707   1.993
  136EMC      H 2036   3.160   0.910   2.113
  136EMC      H 2037   3.169   0.736   2.139
  136EMC      H 2038   3.417   0.509   1.802
  136EMC      H 2039   3.407   0.584   1.640
  136EMC      H 2040   3.263   0.505   1.707
  137EMC      C 2041   3.354   0.629   2.860
  137EMC      C 2042   3.421   0.526   2.771
  137EMC      O 2043   3.323   0.457   2.692
  137EMC      C 2044   3.267   0.349   2.753
  137EMC      O 2045   3.292   0.307   2.864
  137EMC      O 2046   3.177   0.295   2.666
  137EMC      C 2047   3.110   0.180   2.716
  137EMC      H 2048   3.294   0.698   2.800
  137EMC      H 2049   3.430   0.686   2.915
  137EMC      H 2050   3.287   0.582   2.931
  137EMC      H 2051   3.489   0.576   2.700
  137EMC      H 2052   3.483   0.457   2.829
  137EMC      H 2053   3.182   0.099   2.738
  137EMC      H 2054   3.041   0.144   2.639
  137EMC      H 2055   3.052   0.205   2.805
  138EMC      C 2056   0.921   3.052   1.793
  138EMC      C 2057   0.991   3.060   1.659
  138EMC      O 2058   1.013   2.929   1.606
  138EMC      C 2059   1.127   2.869   1.647
  138EMC      O 2060   1.211   2.915   1.722
  138EMC      O 2061   1.133   2.747   1.588
  138EMC      C 2062   1.249   2.671   1.622
  138EMC      H 2063   0.827   2.996   1.785
  138EMC      H 2064   0.899   3.152   1.832
  138EMC      H 2065   0.983   3.000   1.867
  138EMC      H 2066   0.927   3.114   1.588
  138EMC      H 2067   1.085   3.118   1.666
  138EMC      H 2068   1.340   2.723   1.589
  138EMC      H 2069   1.244   2.575   1.569
  138EMC      H 2070   1.252   2.651   1.729
  139EMC      C 2071   3.011   3.781   2.417
  139EMC      C 2072   2.866   3.815   2.390
  139EMC      O 2073   2.797   3.701   2.339
  139EMC      C 2074   2.804   3.684   2.205
  139EMC      O 2075   2.863   3.755   2.126
  139EMC      O 2076   2.734   3.572   2.173
  139EMC      C 2077   2.732   3.542   2.033
  139EMC      H 2078   3.019   3.695   2.486
  139EMC      H 2079   3.063   3.867   2.462
  139EMC      H 2080   3.063   3.753   2.326
  139EMC      H 2081   2.816   3.843   2.484
  139EMC      H 2082   2.857   3.901   2.323
  139EMC      H 2083   2.685   3.623   1.976
  139EMC      H 2084   2.673   3.451   2.019
  139EMC      H 2085   2.834   3.523   1.997
  140EMC      C 2086   3.523   3.822   3.054
  140EMC      C 2087   3.507   3.700   2.966
  140EMC      O 2088   3.610   3.604   2.993
  140EMC      C 2089   3.726   3.623   2.924
  140EMC      O 2090   3.749   3.711   2.844
  140EMC      O 2091   3.812   3.525   2.961
  140EMC      C 2092   3.939   3.531   2.896
  140EMC      H 2093   3.524   3.793   3.160
  140EMC      H 2094   3.441   3.893   3.038
  140EMC      H 2095   3.617   3.873   3.034
  140EMC      H 2096   3.411   3.651   2.987
  140EMC      H 2097   3.504   3.728   2.859
  140EMC      H 2098   3.927   3.520   2.787
  140EMC      H 2099   4.000   3.449   2.933
  140EMC      H 2100   3.989   3.625   2.921
  141EMC      C 2101   3.038   2.721   3.582
  141EMC      C 2102   2.984   2.730   3.722
  141EMC      O 2103   2.873   2.641   3.739
  141EMC      C 2104   2.752   2.692   3.704
  141EMC      O 2105   2.731   2.803   3.660
  141EMC      O 2106   2.659   2.596   3.725
  141EMC      C 2107   2.526   2.636   3.692
  141EMC      H 2108   3.066   2.617   3.557
  141EMC      H 2109   3.127   2.784   3.570
  141EMC      H 2110   2.964   2.752   3.508
  141EMC      H 2111   3.062   2.698   3.794
  141EMC      H 2112   2.958   2.833   3.749
  141EMC      H 2113   2.495   2.721   3.753
  141EMC      H 2114   2.459   2.552   3.713
  141EMC      H 2115   2.519   2.660   3.586
  142EMC      C 2116   2.117   1.095   3.909
  142EMC      C 2117   2.236   1.048   3.827
  142EMC      O 2118   2.219   0.912   3.786
  142EMC      C 2119   2.261   0.819   3.876
  142EMC      O 2120   2.311   0.841   3.985
  142EMC      O 2121   2.237   0.696   3.823
  142EMC      C 2122   2.277   0.588   3.907
  142EMC      H 2123   2.024   1.081   3.852
  142EMC      H 2124   2.127   1.201   3.935
  142EMC      H 2125   2.108   1.037   4.001
  142EMC      H 2126   2.243   1.108   3.735
  142EMC      H 2127   2.330   1.062   3.882
  142EMC      H 2128   2.385   0.591   3.926
  142EMC      H 2129   2.254   0.495   3.855
  142EMC      H 2130   2.221   0.590   4.001
  143EMC      C 2131   1.170   2.834   2.051
  143EMC      C 2132   1.272   2.749   1.979
  143EMC      O 2133   1.217   2.622   1.944
  143EMC      C 2134   1.225   2.527   2.041
  143EMC      O 2135   1.275   2.540   2.151
  143EMC      O 2136   1.169   2.414   1.993
  143EMC      C 2137   1.171   2.304   2.084
  143EMC      H 2138   1.079   2.845   1.990
  143EMC      H 2139   1.210   2.934   2.072
  143EMC      H 2140   1.139   2.788   2.145
  143EMC      H 2141   1.302   2.798   1.885
  143EMC      H 2142   1.364   2.739   2.039
  143EMC      H 2143   1.274   2.276   2.110
  143EMC      H 2144   1.123   2.218   2.036
  143EMC      H 2145   1.114   2.328   2.174
  144EMC      C 2146   1.733   1.402   2.345
  144EMC      C 2147   1.810   1.531   2.360
  144EMC      O 2148   1.728   1.633   2.416
  144EMC      C 2149   1.654   1.703   2.326
  144EMC      O 2150   1.652   1.687   2.205
  144EMC      O 2151   1.581   1.795   2.395
  144EMC      C 2152   1.498   1.877   2.312
  144EMC      H 2153   1.691   1.371   2.441
  144EMC      H 2154   1.798   1.321   2.307
  144EMC      H 2155   1.650   1.413   2.276
  144EMC      H 2156   1.894   1.516   2.429
  144EMC      H 2157   1.855   1.562   2.264
  144EMC      H 2158   1.559   1.935   2.241
  144EMC      H 2159   1.445   1.947   2.377
  144EMC      H 2160   1.425   1.816   2.259
  145EMC      C 2161   2.126   3.861   2.060
  145EMC      C 2162   2.034   3.775   1.977
  145EMC      O 2163   1.917   3.847   1.939
  145EMC      C 2164   1.815   3.845   2.029
  145EMC      O 2165   1.815   3.787   2.136
  145EMC      O 2166   1.713   3.918   1.979
  145EMC      C 2167   1.598   3.924   2.064
  145EMC      H 2168   2.151   3.953   2.007
  145EMC      H 2169   2.218   3.807   2.084
  145EMC      H 2170   2.078   3.891   2.154
  145EMC      H 2171   2.085   3.745   1.884
  145EMC      H 2172   2.009   3.681   2.029
  145EMC      H 2173   1.557   3.823   2.080
  145EMC      H 2174   1.522   3.985   2.014
  145EMC      H 2175   1.624   3.971   2.159
  146EMC      C 2176   1.890   0.324   0.315
  146EMC      C 2177   1.845   0.183   0.345
  146EMC      O 2178   1.751   0.138   0.248
  146EMC      C 2179   1.622   0.170   0.273
  146EMC      O 2180   1.580   0.231   0.370
  146EMC      O 2181   1.546   0.121   0.172
  146EMC      C 2182   1.406   0.147   0.186
  146EMC      H 2183   1.931   0.331   0.214
  146EMC      H 2184   1.967   0.357   0.387
  146EMC      H 2185   1.806   0.394   0.321
  146EMC      H 2186   1.932   0.115   0.340
  146EMC      H 2187   1.805   0.174   0.448
  146EMC      H 2188   1.367   0.100   0.277
  146EMC      H 2189   1.355   0.103   0.100
  146EMC      H 2190   1.387   0.254   0.186
  147EMC      C 2191   0.806   0.310   3.103
  147EMC      C 2192   0.833   0.171   3.155
  147EMC      O 2193   0.726   0.126   3.239
  147EMC      C 2194   0.736   0.163   3.369
  147EMC      O 2195   0.826   0.227   3.419
  147EMC      O 2196   0.628   0.113   3.435
  147EMC      C 2197   0.626   0.144   3.574
  147EMC      H 2198   0.709   0.313   3.050
  147EMC      H 2199   0.884   0.342   3.033
  147EMC      H 2200   0.800   0.382   3.184
  147EMC      H 2201   0.839   0.100   3.070
  147EMC      H 2202   0.930   0.165   3.206
  147EMC      H 2203   0.713   0.100   3.625
  147EMC      H 2204   0.536   0.100   3.617
  147EMC      H 2205   0.622   0.252   3.590
  148EMC      C 2206   2.414   1.792   3.331
  148EMC      C 2207   2.403   1.864   3.198
  148EMC      O 2208   2.382   1.771   3.092
  148EMC      C 2209   2.495   1.718   3.038
  148EMC      O 2210   2.609   1.742   3.072
  148EMC      O 2211   2.458   1.633   2.939
  148EMC      C 2212   2.568   1.569   2.874
  148EMC      H 2213   2.324   1.730   3.348
  148EMC      H 2214   2.424   1.863   3.413
  148EMC      H 2215   2.499   1.724   3.332
  148EMC      H 2216   2.316   1.932   3.200
  148EMC      H 2217   2.491   1.928   3.180
  148EMC      H 2218   2.633   1.643   2.825
  148EMC      H 2219   2.527   1.503   2.796
  148EMC      H 2220   2.625   1.508   2.944
  149EMC      C 2221   0.247   2.486   0.630
  149EMC      C 2222   0.335   2.517   0.749
  149EMC      O 2223   0.264   2.595   0.845
  149EMC      C 2224   0.267   2.729   0.825
  149EMC      O 2225   0.324   2.787   0.734
  149EMC      O 2226   0.195   2.788   0.923
  149EMC      C 2227   0.191   2.931   0.914
  149EMC      H 2228   0.155   2.436   0.663
  149EMC      H 2229   0.299   2.420   0.559
  149EMC      H 2230   0.217   2.576   0.578
  149EMC      H 2231   0.364   2.423   0.800
  149EMC      H 2232   0.428   2.565   0.718
  149EMC      H 2233   0.292   2.974   0.922
  149EMC      H 2234   0.131   2.968   0.998
  149EMC      H 2235   0.143   2.962   0.821
  150EMC      C 2236   2.824   1.306   1.508
  150EMC      C 2237   2.673   1.310   1.508
  150EMC      O 2238   2.620   1.223   1.408
  150EMC      C 2239   2.608   1.279   1.284
  150EMC      O 2240   2.637   1.393   1.253
  150EMC      O 2241   2.557   1.184   1.201
  150EMC      C 2242   2.539   1.229   1.067
  150EMC      H 2243   2.860   1.203   1.520
  150EMC      H 2244   2.864   1.368   1.589
  150EMC      H 2245   2.864   1.343   1.414
  150EMC      H 2246   2.635   1.273   1.605
  150EMC      H 2247   2.635   1.412   1.498
  150EMC      H 2248   2.467   1.313   1.063
  150EMC      H 2249   2.498   1.146   1.008
  150EMC      H 2250   2.634   1.259   1.022
  151EMC      C 2251   3.066   0.901   1.498
  151EMC      C 2252   3.170   0.791   1.500
  151EMC      O 2253   3.107   0.663   1.507
  151EMC      C 2254   3.078   0.619   1.632
  151EMC      O 2255   3.099   0.677   1.736
  151EMC      O 2256   3.019   0.497   1.620
  151EMC      C 2257   2.983   0.438   1.745
  151EMC      H 2258   2.996   0.886   1.415
  151EMC      H 2259   3.113   0.999   1.487
  151EMC      H 2260   3.007   0.901   1.590
  151EMC      H 2261   3.228   0.794   1.407
  151EMC      H 2262   3.242   0.805   1.582
  151EMC      H 2263   3.071   0.422   1.808
  151EMC      H 2264   2.937   0.341   1.724
  151EMC      H 2265   2.909   0.500   1.797
  152EMC      C 2266   1.168   2.236   3.883
  152EMC      C 2267   1.206   2.313   3.759
  152EMC      O 2268   1.178   2.452   3.774
  152EMC      C 2269   1.051   2.489   3.742
  152EMC      O 2270   0.962   2.417   3.702
  152EMC      O 2271   1.041   2.623   3.763
  152EMC      C 2272   0.912   2.677   3.733
  152EMC      H 2273   1.219   2.278   3.971
  152EMC      H 2274   1.195   2.130   3.874
  152EMC      H 2275   1.061   2.243   3.903
  152EMC      H 2276   1.314   2.304   3.741
  152EMC      H 2277   1.157   2.271   3.669
  152EMC      H 2278   0.887   2.661   3.626
  152EMC      H 2279   0.915   2.784   3.752
  152EMC      H 2280   0.836   2.632   3.797
  153EMC      C 2281   0.573   1.350   1.592
  153EMC      C 2282   0.578   1.497   1.556
  153EMC      O 2283   0.487   1.572   1.636
  153EMC      C 2284   0.360   1.578   1.589
  153EMC      O 2285   0.318   1.527   1.487
  153EMC      O 2286   0.287   1.652   1.676
  153EMC      C 2287   0.150   1.667   1.638
  153EMC      H 2288   0.593   1.336   1.700
  153EMC      H 2289   0.648   1.293   1.535
  153EMC      H 2290   0.475   1.308   1.573
  153EMC      H 2291   0.679   1.537   1.576
  153EMC      H 2292   0.560   1.512   1.449
  153EMC      H 2293   0.142   1.719   1.542
  153EMC      H 2294   0.100   1.728   1.714
  153EMC      H 2295   0.100   1.570   1.634
  154EMC      C 2296   1.151   0.468   1.261
  154EMC      C 2297   1.230   0.562   1.172
  154EMC      O 2298   1.370   0.545   1.194
  154EMC      C 2299   1.422   0.619   1.296
  154EMC      O 2300   1.361   0.696   1.368
  154EMC      O 2301   1.555   0.592   1.304
  154EMC      C 2302   1.623   0.663   1.407
  154EMC      H 2303   1.182   0.364   1.244
  154EMC      H 2304   1.043   0.476   1.239
  154EMC      H 2305   1.167   0.490   1.366
  154EMC      H 2306   1.211   0.538   1.066
  154EMC      H 2307   1.199   0.666   1.186
  154EMC      H 2308   1.616   0.772   1.391
  154EMC      H 2309   1.728   0.635   1.405
  154EMC      H 2310   1.582   0.637   1.505
  155EMC      C 2311   1.267   2.763   2.393
  155EMC      C 2312   1.129   2.825   2.398
  155EMC      O 2313   1.127   2.949   2.328
  155EMC      C 2314   1.163   3.058   2.402
  155EMC      O 2315   1.195   3.058   2.519
  155EMC      O 2316   1.156   3.167   2.321
  155EMC      C 2317   1.191   3.289   2.387
  155EMC      H 2318   1.301   2.752   2.290
  155EMC      H 2319   1.267   2.665   2.442
  155EMC      H 2320   1.340   2.827   2.444
  155EMC      H 2321   1.057   2.758   2.347
  155EMC      H 2322   1.093   2.835   2.501
  155EMC      H 2323   1.122   3.310   2.470
  155EMC      H 2324   1.182   3.370   2.314
  155EMC      H 2325   1.294   3.285   2.422
  156EMC      C 2326   0.865   3.020   2.567
  156EMC      C 2327   0.844   3.168   2.586
  156EMC      O 2328   0.762   3.221   2.481
  156EMC      C 2329   0.828   3.258   2.368
  156EMC      O 2330   0.948   3.250   2.349
  156EMC      O 2331   0.737   3.305   2.280
  156EMC      C 2332   0.793   3.347   2.156
  156EMC      H 2333   0.769   2.968   2.562
  156EMC      H 2334   0.923   2.978   2.651
  156EMC      H 2335   0.918   2.998   2.475
  156EMC      H 2336   0.791   3.187   2.680
  156EMC      H 2337   0.940   3.222   2.593
  156EMC      H 2338   0.863   3.430   2.171
  156EMC      H 2339   0.711   3.383   2.092
  156EMC      H 2340   0.842   3.264   2.105
  157EMC      C 2341   0.505   2.667   1.159
  157EMC      C 2342   0.424   2.633   1.036
  157EMC      O 2343   0.428   2.493   1.011
  157EMC      C 2344   0.534   2.450   0.937
  157EMC      O 2345   0.623   2.519   0.891
  157EMC      O 2346   0.523   2.316   0.922
  157EMC      C 2347   0.628   2.257   0.845
  157EMC      H 2348   0.470   2.610   1.246
  157EMC      H 2349   0.497   2.774   1.182
  157EMC      H 2350   0.610   2.643   1.145
  157EMC      H 2351   0.318   2.660   1.053
  157EMC      H 2352   0.457   2.691   0.949
  157EMC      H 2353   0.629   2.298   0.743
  157EMC      H 2354   0.609   2.149   0.839
  157EMC      H 2355   0.724   2.273   0.894
  158EMC      C 2356   3.906   2.506   2.880
  158EMC      C 2357   3.931   2.360   2.911
  158EMC      O 2358   3.999   2.297   2.803
  158EMC      C 2359   3.919   2.248   2.705
  158EMC      O 2360   3.798   2.254   2.701
  158EMC      O 2361   3.999   2.192   2.611
  158EMC      C 2362   3.928   2.136   2.500
  158EMC      H 2363   4.001   2.557   2.857
  158EMC      H 2364   3.859   2.557   2.966
  158EMC      H 2365   3.841   2.518   2.793
  158EMC      H 2366   3.996   2.352   3.000
  158EMC      H 2367   3.838   2.308   2.937
  158EMC      H 2368   3.861   2.055   2.534
  158EMC      H 2369   4.000   2.093   2.431
  158EMC      H 2370   3.871   2.213   2.448
  159EMC      C 2371   2.975   0.198   3.306
  159EMC      C 2372   2.838   0.163   3.250
  159EMC      O 2373   2.767   0.282   3.216
  159EMC      C 2374   2.696   0.339   3.317
  159EMC      O 2375   2.689   0.298   3.431
  159EMC      O 2376   2.635   0.449   3.268
  159EMC      C 2377   2.557   0.519   3.365
  159EMC      H 2378   3.031   0.259   3.234
  159EMC      H 2379   3.032   0.106   3.327
  159EMC      H 2380   2.967   0.255   3.398
  159EMC      H 2381   2.850   0.104   3.158
  159EMC      H 2382   2.781   0.100   3.320
  159EMC      H 2383   2.476   0.456   3.403
  159EMC      H 2384   2.512   0.606   3.315
  159EMC      H 2385   2.619   0.555   3.446
  160EMC      C 2386   2.548   2.001   2.504
  160EMC      C 2387   2.652   1.962   2.606
  160EMC      O 2388   2.725   2.077   2.650
  160EMC      C 2389   2.832   2.111   2.574
  160EMC      O 2390   2.870   2.054   2.474
  160EMC      O 2391   2.889   2.221   2.629
  160EMC      C 2392   3.004   2.268   2.558
  160EMC      H 2393   2.481   2.078   2.545
  160EMC      H 2394   2.488   1.914   2.474
  160EMC      H 2395   2.594   2.044   2.415
  160EMC      H 2396   2.603   1.919   2.695
  160EMC      H 2397   2.719   1.884   2.567
  160EMC      H 2398   3.083   2.191   2.557
  160EMC      H 2399   3.042   2.356   2.611
  160EMC      H 2400   2.977   2.297   2.457
  161EMC      C 2401   3.443   3.709   1.276
  161EMC      C 2402   3.544   3.625   1.351
  161EMC      O 2403   3.632   3.707   1.427
  161EMC      C 2404   3.741   3.753   1.359
  161EMC      O 2405   3.769   3.730   1.243
  161EMC      O 2406   3.814   3.830   1.444
  161EMC      C 2407   3.932   3.884   1.386
  161EMC      H 2408   3.388   3.774   1.345
  161EMC      H 2409   3.371   3.645   1.223
  161EMC      H 2410   3.492   3.774   1.204
  161EMC      H 2411   3.491   3.560   1.423
  161EMC      H 2412   3.599   3.558   1.283
  161EMC      H 2413   4.000   3.804   1.353
  161EMC      H 2414   3.983   3.944   1.462
  161EMC      H 2415   3.907   3.950   1.302
  162EMC      C 2416   0.694   2.406   3.633
  162EMC      C 2417   0.594   2.470   3.727
  162EMC      O 2418   0.509   2.370   3.784
  162EMC      C 2419   0.399   2.339   3.709
  162EMC      O 2420   0.369   2.387   3.602
  162EMC      O 2421   0.329   2.244   3.776
  162EMC      C 2422   0.211   2.201   3.709
  162EMC      H 2423   0.752   2.328   3.685
  162EMC      H 2424   0.764   2.482   3.594
  162EMC      H 2425   0.645   2.359   3.549
  162EMC      H 2426   0.647   2.518   3.811
  162EMC      H 2427   0.537   2.549   3.677
  162EMC      H 2428   0.141   2.285   3.696
  162EMC      H 2429   0.162   2.125   3.771
  162EMC      H 2430   0.235   2.156   3.612
  163EMC      C 2431   2.105   1.714   2.171
  163EMC      C 2432   2.155   1.596   2.251
  163EMC      O 2433   2.224   1.504   2.166
  163EMC      C 2434   2.145   1.412   2.105
  163EMC      O 2435   2.025   1.401   2.115
  163EMC      O 2436   2.225   1.333   2.029
  163EMC      C 2437   2.155   1.230   1.958
  163EMC      H 2438   2.188   1.763   2.117
  163EMC      H 2439   2.058   1.788   2.236
  163EMC      H 2440   2.033   1.683   2.096
  163EMC      H 2441   2.228   1.631   2.326
  163EMC      H 2442   2.074   1.548   2.306
  163EMC      H 2443   2.105   1.162   2.028
  163EMC      H 2444   2.228   1.172   1.901
  163EMC      H 2445   2.084   1.274   1.888
  164EMC      C 2446   0.284   0.549   1.854
  164EMC      C 2447   0.398   0.502   1.941
  164EMC      O 2448   0.483   0.611   1.977
  164EMC      C 2449   0.581   0.639   1.888
  164EMC      O 2450   0.603   0.582   1.783
  164EMC      O 2451   0.652   0.744   1.936
  164EMC      C 2452   0.760   0.786   1.852
  164EMC      H 2453   0.228   0.629   1.904
  164EMC      H 2454   0.215   0.467   1.831
  164EMC      H 2455   0.321   0.590   1.760
  164EMC      H 2456   0.358   0.460   2.035
  164EMC      H 2457   0.454   0.420   1.893
  164EMC      H 2458   0.833   0.704   1.839
  164EMC      H 2459   0.810   0.870   1.900
  164EMC      H 2460   0.722   0.819   1.755
  165EMC      C 2461   3.800   2.259   3.582
  165EMC      C 2462   3.944   2.297   3.558
  165EMC      O 2463   3.967   2.433   3.595
  165EMC      C 2464   3.940   2.525   3.498
  165EMC      O 2465   3.900   2.501   3.385
  165EMC      O 2466   3.967   2.648   3.548
  165EMC      C 2467   3.943   2.755   3.456
  165EMC      H 2468   3.772   2.278   3.687
  165EMC      H 2469   3.783   2.153   3.560
  165EMC      H 2470   3.732   2.318   3.521
  165EMC      H 2471   4.010   2.236   3.621
  165EMC      H 2472   3.974   2.277   3.454
  165EMC      H 2473   4.008   2.745   3.367
  165EMC      H 2474   3.968   2.849   3.506
  165EMC      H 2475   3.838   2.757   3.427
  166EMC      C 2476   2.274   0.506   1.873
  166EMC      C 2477   2.262   0.635   1.796
  166EMC      O 2478   2.274   0.611   1.656
  166EMC      C 2479   2.401   0.610   1.608
  166EMC      O 2480   2.503   0.628   1.673
  166EMC      O 2481   2.396   0.587   1.475
  166EMC      C 2482   2.523   0.583   1.411
  166EMC      H 2483   2.199   0.433   1.838
  166EMC      H 2484   2.258   0.523   1.981
  166EMC      H 2485   2.372   0.460   1.860
  166EMC      H 2486   2.162   0.679   1.812
  166EMC      H 2487   2.334   0.710   1.831
  166EMC      H 2488   2.575   0.680   1.421
  166EMC      H 2489   2.508   0.564   1.305
  166EMC      H 2490   2.585   0.502   1.452
  167EMC      C 2491   3.313   2.157   1.053
  167EMC      C 2492   3.464   2.169   1.064
  167EMC      O 2493   3.526   2.144   0.938
  167EMC      C 2494   3.551   2.013   0.910
  167EMC      O 2495   3.527   1.918   0.983
  167EMC      O 2496   3.609   2.007   0.788
  167EMC      C 2497   3.642   1.874   0.746
  167EMC      H 2498   3.275   2.225   0.975
  167EMC      H 2499   3.265   2.182   1.149
  167EMC      H 2500   3.284   2.056   1.025
  167EMC      H 2501   3.491   2.272   1.093
  167EMC      H 2502   3.504   2.103   1.142
  167EMC      H 2503   3.714   1.828   0.815
  167EMC      H 2504   3.688   1.880   0.647
  167EMC      H 2505   3.552   1.813   0.739
  168EMC      C 2506   0.203   2.303   2.775
  168EMC      C 2507   0.275   2.267   2.647
  168EMC      O 2508   0.407   2.219   2.675
  168EMC      C 2509   0.502   2.316   2.686
  168EMC      O 2510   0.486   2.435   2.674
  168EMC      O 2511   0.620   2.254   2.713
  168EMC      C 2512   0.730   2.344   2.727
  168EMC      H 2513   0.201   2.217   2.844
  168EMC      H 2514   0.100   2.334   2.754
  168EMC      H 2515   0.253   2.384   2.827
  168EMC      H 2516   0.222   2.185   2.596
  168EMC      H 2517   0.277   2.351   2.576
  168EMC      H 2518   0.747   2.400   2.634
  168EMC      H 2519   0.820   2.285   2.748
  168EMC      H 2520   0.714   2.413   2.811
  169EMC      C 2521   0.890   1.105   1.165
  169EMC      C 2522   0.969   1.142   1.041
  169EMC      O 2523   1.092   1.068   1.036
  169EMC      C 2524   1.196   1.124   1.104
  169EMC      O 2525   1.194   1.229   1.166
  169EMC      O 2526   1.303   1.043   1.090
  169EMC      C 2527   1.421   1.089   1.156
  169EMC      H 2528   0.872   0.997   1.168
  169EMC      H 2529   0.793   1.157   1.165
  169EMC      H 2530   0.944   1.131   1.256
  169EMC      H 2531   0.912   1.115   0.951
  169EMC      H 2532   0.987   1.251   1.036
  169EMC      H 2533   1.452   1.186   1.115
  169EMC      H 2534   1.500   1.017   1.138
  169EMC      H 2535   1.404   1.096   1.263
  170EMC      C 2536   2.742   2.490   2.146
  170EMC      C 2537   2.688   2.592   2.049
  170EMC      O 2538   2.762   2.714   2.057
  170EMC      C 2539   2.721   2.801   2.152
  170EMC      O 2540   2.628   2.786   2.229
  170EMC      O 2541   2.802   2.910   2.147
  170EMC      C 2542   2.769   3.011   2.242
  170EMC      H 2543   2.849   2.472   2.127
  170EMC      H 2544   2.688   2.394   2.135
  170EMC      H 2545   2.732   2.524   2.249
  170EMC      H 2546   2.698   2.555   1.945
  170EMC      H 2547   2.580   2.610   2.065
  170EMC      H 2548   2.667   3.050   2.225
  170EMC      H 2549   2.839   3.094   2.230
  170EMC      H 2550   2.779   2.973   2.344
  171EMC      C 2551   1.832   0.770   2.761
  171EMC      C 2552   1.759   0.645   2.806
  171EMC      O 2553   1.709   0.573   2.694
  171EMC      C 2554   1.587   0.612   2.650
  171EMC      O 2555   1.518   0.701   2.696
  171EMC      O 2556   1.554   0.534   2.543
  171EMC      C 2557   1.427   0.565   2.486
  171EMC      H 2558   1.912   0.744   2.691
  171EMC      H 2559   1.876   0.822   2.847
  171EMC      H 2560   1.765   0.838   2.710
  171EMC      H 2561   1.829   0.578   2.859
  171EMC      H 2562   1.679   0.669   2.878
  171EMC      H 2563   1.346   0.549   2.560
  171EMC      H 2564   1.410   0.497   2.402
  171EMC      H 2565   1.425   0.667   2.449
  172EMC      C 2566   2.325   1.540   0.665
  172EMC      C 2567   2.210   1.637   0.645
  172EMC      O 2568   2.201   1.728   0.755
  172EMC      C 2569   2.127   1.683   0.861
  172EMC      O 2570   2.070   1.576   0.869
  172EMC      O 2571   2.129   1.780   0.956
  172EMC      C 2572   2.055   1.747   1.073
  172EMC      H 2573   2.419   1.595   0.681
  172EMC      H 2574   2.336   1.475   0.578
  172EMC      H 2575   2.309   1.478   0.753
  172EMC      H 2576   2.229   1.698   0.555
  172EMC      H 2577   2.115   1.584   0.628
  172EMC      H 2578   1.948   1.731   1.049
  172EMC      H 2579   2.062   1.830   1.143
  172EMC      H 2580   2.096   1.658   1.121
  173EMC      C 2581   1.519   3.400   2.082
  173EMC      C 2582   1.379   3.355   2.116
  173EMC      O 2583   1.285   3.460   2.092
  173EMC      C 2584   1.268   3.547   2.195
  173EMC      O 2585   1.324   3.542   2.303
  173EMC      O 2586   1.177   3.639   2.157
  173EMC      C 2587   1.149   3.738   2.257
  173EMC      H 2588   1.524   3.436   1.978
  173EMC      H 2589   1.591   3.318   2.094
  173EMC      H 2590   1.551   3.483   2.145
  173EMC      H 2591   1.350   3.271   2.050
  173EMC      H 2592   1.373   3.317   2.219
  173EMC      H 2593   1.106   3.691   2.347
  173EMC      H 2594   1.074   3.807   2.216
  173EMC      H 2595   1.239   3.794   2.282
  174EMC      C 2596   0.562   2.494   3.145
  174EMC      C 2597   0.556   2.638   3.100
  174EMC      O 2598   0.598   2.725   3.205
  174EMC      C 2599   0.500   2.763   3.292
  174EMC      O 2600   0.384   2.730   3.287
  174EMC      O 2601   0.556   2.845   3.384
  174EMC      C 2602   0.464   2.892   3.482
  174EMC      H 2603   0.663   2.468   3.181
  174EMC      H 2604   0.536   2.426   3.063
  174EMC      H 2605   0.493   2.476   3.228
  174EMC      H 2606   0.626   2.653   3.016
  174EMC      H 2607   0.457   2.664   3.062
  174EMC      H 2608   0.384   2.952   3.435
  174EMC      H 2609   0.518   2.957   3.551
  174EMC      H 2610   0.421   2.809   3.539
  175EMC      C 2611   3.816   1.378   1.251
  175EMC      C 2612   3.910   1.477   1.317
  175EMC      O 2613   3.842   1.600   1.344
  175EMC      C 2614   3.841   1.689   1.242
  175EMC      O 2615   3.891   1.674   1.132
  175EMC      O 2616   3.773   1.799   1.283
  175EMC      C 2617   3.764   1.902   1.185
  175EMC      H 2618   3.727   1.362   1.314
  175EMC      H 2619   3.866   1.281   1.236
  175EMC      H 2620   3.781   1.414   1.155
  175EMC      H 2621   3.944   1.437   1.414
  175EMC      H 2622   4.000   1.493   1.256
  175EMC      H 2623   3.864   1.938   1.157
  175EMC      H 2624   3.709   1.986   1.228
  175EMC      H 2625   3.710   1.867   1.097
  176EMC      C 2626   2.809   2.598   1.667
  176EMC      C 2627   2.937   2.606   1.746
  176EMC      O 2628   2.963   2.740   1.789
  176EMC      C 2629   3.030   2.817   1.699
  176EMC      O 2630   3.069   2.782   1.589
  176EMC      O 2631   3.045   2.940   1.753
  176EMC      C 2632   3.115   3.032   1.670
  176EMC      H 2633   2.725   2.638   1.725
  176EMC      H 2634   2.787   2.494   1.640
  176EMC      H 2635   2.816   2.657   1.575
  176EMC      H 2636   2.928   2.545   1.838
  176EMC      H 2637   3.022   2.564   1.690
  176EMC      H 2638   3.217   2.997   1.649
  176EMC      H 2639   3.122   3.128   1.722
  176EMC      H 2640   3.060   3.049   1.577
  177EMC      C 2641   2.274   2.710   2.135
  177EMC      C 2642   2.197   2.580   2.131
  177EMC      O 2643   2.188   2.522   2.262
  177EMC      C 2644   2.293   2.444   2.298
  177EMC      O 2645   2.391   2.418   2.230
  177EMC      O 2646   2.269   2.398   2.423
  177EMC      C 2647   2.372   2.313   2.474
  177EMC      H 2648   2.228   2.780   2.207
  177EMC      H 2649   2.275   2.757   2.036
  177EMC      H 2650   2.377   2.694   2.168
  177EMC      H 2651   2.094   2.599   2.098
  177EMC      H 2652   2.240   2.510   2.059
  177EMC      H 2653   2.383   2.223   2.411
  177EMC      H 2654   2.344   2.281   2.574
  177EMC      H 2655   2.467   2.367   2.480
  178EMC      C 2656   2.997   0.528   0.999
  178EMC      C 2657   3.115   0.499   0.909
  178EMC      O 2658   3.227   0.456   0.986
  178EMC      C 2659   3.306   0.556   1.035
  178EMC      O 2660   3.289   0.675   1.019
  178EMC      O 2661   3.407   0.499   1.105
  178EMC      C 2662   3.498   0.593   1.162
  178EMC      H 2663   2.972   0.440   1.061
  178EMC      H 2664   2.908   0.555   0.940
  178EMC      H 2665   3.018   0.610   1.068
  178EMC      H 2666   3.089   0.417   0.840
  178EMC      H 2667   3.139   0.586   0.846
  178EMC      H 2668   3.547   0.653   1.083
  178EMC      H 2669   3.575   0.537   1.215
  178EMC      H 2670   3.447   0.658   1.233
  179EMC      C 2671   3.797   1.499   0.780
  179EMC      C 2672   3.940   1.545   0.801
  179EMC      O 2673   3.945   1.655   0.892
  179EMC      C 2674   3.928   1.777   0.836
  179EMC      O 2675   3.910   1.801   0.718
  179EMC      O 2676   3.935   1.870   0.935
  179EMC      C 2677   3.920   2.004   0.890
  179EMC      H 2678   3.750   1.474   0.877
  179EMC      H 2679   3.793   1.411   0.715
  179EMC      H 2680   3.737   1.578   0.735
  179EMC      H 2681   3.998   1.463   0.847
  179EMC      H 2682   3.989   1.569   0.706
  179EMC      H 2683   3.999   2.031   0.819
  179EMC      H 2684   3.927   2.070   0.977
  179EMC      H 2685   3.821   2.019   0.845
  180EMC      C 2686   0.904   0.693   1.121
  180EMC      C 2687   0.810   0.604   1.200
  180EMC      O 2688   0.786   0.482   1.129
  180EMC      C 2689   0.685   0.486   1.038
  180EMC      O 2690   0.615   0.582   1.013
  180EMC      O 2691   0.676   0.364   0.981
  180EMC      C 2692   0.573   0.353   0.883
  180EMC      H 2693   0.998   0.640   1.100
  180EMC      H 2694   0.928   0.784   1.178
  180EMC      H 2695   0.861   0.722   1.026
  180EMC      H 2696   0.856   0.577   1.296
  180EMC      H 2697   0.716   0.656   1.224
  180EMC      H 2698   0.474   0.372   0.928
  180EMC      H 2699   0.574   0.251   0.843
  180EMC      H 2700   0.592   0.422   0.800
  181EMC      C 2701   0.511   1.752   1.967
  181EMC      C 2702   0.585   1.883   1.955
  181EMC      O 2703   0.613   1.912   1.818
  181EMC      C 2704   0.728   1.857   1.770
  181EMC      O 2705   0.807   1.788   1.832
  181EMC      O 2706   0.740   1.893   1.640
  181EMC      C 2707   0.858   1.843   1.576
  181EMC      H 2708   0.419   1.753   1.907
  181EMC      H 2709   0.483   1.732   2.072
  181EMC      H 2710   0.571   1.668   1.932
  181EMC      H 2711   0.522   1.965   1.992
  181EMC      H 2712   0.676   1.883   2.016
  181EMC      H 2713   0.948   1.881   1.625
  181EMC      H 2714   0.858   1.878   1.472
  181EMC      H 2715   0.857   1.734   1.575
  182EMC      C 2716   1.442   3.553   2.926
  182EMC      C 2717   1.466   3.663   3.027
  182EMC      O 2718   1.346   3.695   3.097
  182EMC      C 2719   1.266   3.787   3.035
  182EMC      O 2720   1.289   3.843   2.930
  182EMC      O 2721   1.157   3.806   3.113
  182EMC      C 2722   1.064   3.901   3.061
  182EMC      H 2723   1.399   3.464   2.975
  182EMC      H 2724   1.536   3.524   2.877
  182EMC      H 2725   1.372   3.584   2.850
  182EMC      H 2726   1.539   3.628   3.103
  182EMC      H 2727   1.511   3.751   2.980
  182EMC      H 2728   1.111   4.000   3.052
  182EMC      H 2729   0.981   3.909   3.130
  182EMC      H 2730   1.026   3.868   2.964
  183EMC      C 2731   1.147   2.513   0.533
  183EMC      C 2732   1.090   2.411   0.628
  183EMC      O 2733   0.968   2.457   0.685
  183EMC      C 2734   0.981   2.534   0.796
  183EMC      O 2735   1.085   2.564   0.851
  183EMC      O 2736   0.857   2.570   0.837
  183EMC      C 2737   0.856   2.651   0.955
  183EMC      H 2738   1.074   2.539   0.455
  183EMC      H 2739   1.238   2.475   0.484
  183EMC      H 2740   1.172   2.606   0.585
  183EMC      H 2741   1.067   2.318   0.573
  183EMC      H 2742   1.163   2.383   0.705
  183EMC      H 2743   0.900   2.597   1.040
  183EMC      H 2744   0.752   2.674   0.979
  183EMC      H 2745   0.909   2.745   0.937
  184EMC      C 2746   1.866   1.976   2.328
  184EMC      C 2747   1.879   2.125   2.346
  184EMC      O 2748   1.799   2.195   2.250
  184EMC      C 2749   1.859   2.217   2.130
  184EMC      O 2750   1.972   2.185   2.099
  184EMC      O 2751   1.771   2.283   2.051
  184EMC      C 2752   1.821   2.314   1.921
  184EMC      H 2753   1.761   1.945   2.334
  184EMC      H 2754   1.923   1.922   2.406
  184EMC      H 2755   1.903   1.944   2.231
  184EMC      H 2756   1.842   2.154   2.446
  184EMC      H 2757   1.985   2.157   2.342
  184EMC      H 2758   1.909   2.380   1.928
  184EMC      H 2759   1.743   2.367   1.867
  184EMC      H 2760   1.845   2.223   1.867
  185EMC      C 2761   1.076   1.608   3.859
  185EMC      C 2762   0.931   1.568   3.867
  185EMC      O 2763   0.916   1.448   3.942
  185EMC      C 2764   0.930   1.333   3.871
  185EMC      O 2765   0.952   1.324   3.752
  185EMC      O 2766   0.913   1.229   3.956
  185EMC      C 2767   0.925   1.100   3.894
  185EMC      H 2768   1.120   1.618   3.959
  185EMC      H 2769   1.087   1.704   3.806
  185EMC      H 2770   1.135   1.533   3.806
  185EMC      H 2771   0.874   1.646   3.920
  185EMC      H 2772   0.886   1.560   3.767
  185EMC      H 2773   0.847   1.087   3.817
  185EMC      H 2774   0.910   1.024   3.971
  185EMC      H 2775   1.024   1.087   3.852
  186EMC      C 2776   1.074   1.922   1.166
  186EMC      C 2777   1.021   1.918   1.025
  186EMC      O 2778   0.916   2.014   1.008
  186EMC      C 2779   0.791   1.970   1.042
  186EMC      O 2780   0.763   1.859   1.084
  186EMC      O 2781   0.704   2.071   1.021
  186EMC      C 2782   0.569   2.038   1.053
  186EMC      H 2783   1.107   2.023   1.192
  186EMC      H 2784   1.159   1.853   1.177
  186EMC      H 2785   0.998   1.894   1.238
  186EMC      H 2786   1.101   1.946   0.954
  186EMC      H 2787   0.989   1.817   0.997
  186EMC      H 2788   0.533   1.956   0.990
  186EMC      H 2789   0.507   2.126   1.032
  186EMC      H 2790   0.559   2.013   1.159
  187EMC      C 2791   1.144   0.737   1.880
  187EMC      C 2792   1.222   0.610   1.907
  187EMC      O 2793   1.157   0.497   1.850
  187EMC      C 2794   1.061   0.440   1.928
  187EMC      O 2795   1.029   0.475   2.040
  187EMC      O 2796   1.009   0.335   1.860
  187EMC      C 2797   0.907   0.264   1.931
  187EMC      H 2798   1.129   0.750   1.772
  187EMC      H 2799   1.198   0.825   1.918
  187EMC      H 2800   1.046   0.733   1.926
  187EMC      H 2801   1.322   0.617   1.860
  187EMC      H 2802   1.240   0.597   2.015
  187EMC      H 2803   0.947   0.222   2.024
  187EMC      H 2804   0.872   0.183   1.867
  187EMC      H 2805   0.823   0.330   1.952
  188EMC      C 2806   3.547   1.952   1.517
  188EMC      C 2807   3.433   1.938   1.419
  188EMC      O 2808   3.399   1.800   1.400
  188EMC      C 2809   3.471   1.735   1.305
  188EMC      O 2810   3.559   1.783   1.236
  188EMC      O 2811   3.428   1.607   1.300
  188EMC      C 2812   3.496   1.526   1.203
  188EMC      H 2813   3.522   1.903   1.612
  188EMC      H 2814   3.568   2.058   1.536
  188EMC      H 2815   3.637   1.904   1.479
  188EMC      H 2816   3.343   1.987   1.459
  188EMC      H 2817   3.455   1.987   1.323
  188EMC      H 2818   3.480   1.566   1.102
  188EMC      H 2819   3.453   1.426   1.207
  188EMC      H 2820   3.602   1.520   1.226
  189EMC      C 2821   3.550   0.976   2.578
  189EMC      C 2822   3.695   0.954   2.614
  189EMC      O 2823   3.756   1.076   2.657
  189EMC      C 2824   3.806   1.153   2.557
  189EMC      O 2825   3.805   1.127   2.438
  189EMC      O 2826   3.860   1.264   2.613
  189EMC      C 2827   3.917   1.355   2.519
  189EMC      H 2828   3.496   1.021   2.663
  189EMC      H 2829   3.501   0.881   2.552
  189EMC      H 2830   3.540   1.045   2.494
  189EMC      H 2831   3.702   0.884   2.699
  189EMC      H 2832   3.750   0.907   2.532
  189EMC      H 2833   4.000   1.307   2.464
  189EMC      H 2834   3.957   1.440   2.574
  189EMC      H 2835   3.841   1.391   2.449
  190EMC      C 2836   1.416   3.689   1.918
  190EMC      C 2837   1.295   3.614   1.866
  190EMC      O 2838   1.327   3.477   1.844
  190EMC      C 2839   1.381   3.448   1.722
  190EMC      O 2840   1.402   3.528   1.633
  190EMC      O 2841   1.405   3.315   1.718
  190EMC      C 2842   1.462   3.271   1.594
  190EMC      H 2843   1.454   3.642   2.009
  190EMC      H 2844   1.389   3.794   1.941
  190EMC      H 2845   1.497   3.689   1.845
  190EMC      H 2846   1.215   3.617   1.942
  190EMC      H 2847   1.254   3.661   1.776
  190EMC      H 2848   1.393   3.291   1.511
  190EMC      H 2849   1.477   3.163   1.601
  190EMC      H 2850   1.558   3.319   1.577
  191EMC      C 2851   2.551   0.166   2.642
  191EMC      C 2852   2.546   0.290   2.728
  191EMC      O 2853   2.535   0.255   2.866
  191EMC      C 2854   2.408   0.236   2.911
  191EMC      O 2855   2.306   0.246   2.845
  191EMC      O 2856   2.415   0.204   3.042
  191EMC      C 2857   2.288   0.181   3.103
  191EMC      H 2858   2.633   0.100   2.673
  191EMC      H 2859   2.566   0.192   2.536
  191EMC      H 2860   2.459   0.108   2.650
  191EMC      H 2861   2.640   0.346   2.716
  191EMC      H 2862   2.465   0.358   2.696
  191EMC      H 2863   2.225   0.271   3.098
  191EMC      H 2864   2.305   0.156   3.208
  191EMC      H 2865   2.237   0.096   3.055
  192EMC      C 2866   3.274   2.206   2.291
  192EMC      C 2867   3.365   2.098   2.343
  192EMC      O 2868   3.300   1.970   2.340
  192EMC      C 2869   3.225   1.941   2.449
  192EMC      O 2870   3.209   2.011   2.547
  192EMC      O 2871   3.170   1.818   2.430
  192EMC      C 2872   3.088   1.774   2.538
  192EMC      H 2873   3.239   2.181   2.190
  192EMC      H 2874   3.325   2.303   2.288
  192EMC      H 2875   3.185   2.216   2.353
  192EMC      H 2876   3.454   2.090   2.279
  192EMC      H 2877   3.402   2.122   2.444
  192EMC      H 2878   3.147   1.766   2.630
  192EMC      H 2879   3.050   1.675   2.512
  192EMC      H 2880   3.003   1.841   2.552
  193EMC      C 2881   1.527   2.836   0.516
  193EMC      C 2882   1.560   2.829   0.663
  193EMC      O 2883   1.562   2.959   0.721
  193EMC      C 2884   1.681   3.025   0.711
  193EMC      O 2885   1.782   2.983   0.659
  193EMC      O 2886   1.666   3.147   0.770
  193EMC      C 2887   1.784   3.227   0.767
  193EMC      H 2888   1.431   2.888   0.500
  193EMC      H 2889   1.519   2.735   0.473
  193EMC      H 2890   1.603   2.891   0.461
  193EMC      H 2891   1.482   2.771   0.716
  193EMC      H 2892   1.655   2.775   0.680
  193EMC      H 2893   1.866   3.178   0.821
  193EMC      H 2894   1.761   3.322   0.816
  193EMC      H 2895   1.813   3.248   0.664
  194EMC      C 2896   0.490   0.953   3.409
  194EMC      C 2897   0.624   0.991   3.349
  194EMC      O 2898   0.716   0.883   3.361
  194EMC      C 2899   0.785   0.879   3.479
  194EMC      O 2900   0.775   0.957   3.571
  194EMC      O 2901   0.868   0.772   3.474
  194EMC      C 2902   0.948   0.755   3.592
  194EMC      H 2903   0.451   0.861   3.363
  194EMC      H 2904   0.417   1.034   3.394
  194EMC      H 2905   0.499   0.934   3.516
  194EMC      H 2906   0.611   1.010   3.241
  194EMC      H 2907   0.663   1.084   3.393
  194EMC      H 2908   1.013   0.842   3.607
  194EMC      H 2909   1.010   0.667   3.578
  194EMC      H 2910   0.884   0.739   3.679
  195EMC      C 2911   1.513   0.727   3.324
  195EMC      C 2912   1.402   0.629   3.296
  195EMC      O 2913   1.454   0.510   3.235
  195EMC      C 2914   1.466   0.515   3.100
  195EMC      O 2915   1.436   0.609   3.028
  195EMC      O 2916   1.516   0.396   3.059
  195EMC      C 2917   1.533   0.387   2.917
  195EMC      H 2918   1.591   0.681   3.387
  195EMC      H 2919   1.475   0.816   3.377
  195EMC      H 2920   1.561   0.760   3.232
  195EMC      H 2921   1.355   0.598   3.391
  195EMC      H 2922   1.322   0.674   3.236
  195EMC      H 2923   1.437   0.398   2.865
  195EMC      H 2924   1.574   0.288   2.894
  195EMC      H 2925   1.605   0.462   2.882
  196EMC      C 2926   2.252   3.135   0.277
  196EMC      C 2927   2.204   3.276   0.300
  196EMC      O 2928   2.233   3.318   0.434
  196EMC      C 2929   2.139   3.285   0.527
  196EMC      O 2930   2.036   3.226   0.507
  196EMC      O 2931   2.182   3.332   0.647
  196EMC      C 2932   2.093   3.304   0.755
  196EMC      H 2933   2.359   3.126   0.299
  196EMC      H 2934   2.235   3.105   0.173
  196EMC      H 2935   2.200   3.064   0.342
  196EMC      H 2936   2.257   3.345   0.233
  196EMC      H 2937   2.097   3.287   0.277
  196EMC      H 2938   1.995   3.353   0.738
  196EMC      H 2939   2.136   3.346   0.846
  196EMC      H 2940   2.080   3.197   0.768
  197EMC      C 2941   2.208   0.338   2.534
  197EMC      C 2942   2.282   0.448   2.462
  197EMC      O 2943   2.214   0.573   2.479
  197EMC      C 2944   2.115   0.598   2.389
  197EMC      O 2945   2.080   0.526   2.298
  197EMC      O 2946   2.062   0.719   2.419
  197EMC      C 2947   1.956   0.759   2.332
  197EMC      H 2948   2.196   0.363   2.640
  197EMC      H 2949   2.263   0.243   2.526
  197EMC      H 2950   2.108   0.323   2.493
  197EMC      H 2951   2.382   0.460   2.505
  197EMC      H 2952   2.296   0.424   2.355
  197EMC      H 2953   1.992   0.768   2.228
  197EMC      H 2954   1.920   0.857   2.365
  197EMC      H 2955   1.873   0.689   2.338
  198EMC      C 2956   0.952   1.135   0.592
  198EMC      C 2957   1.099   1.106   0.612
  198EMC      O 2958   1.170   1.119   0.489
  198EMC      C 2959   1.172   1.008   0.411
  198EMC      O 2960   1.121   0.901   0.436
  198EMC      O 2961   1.243   1.037   0.299
  198EMC      C 2962   1.254   0.928   0.207
  198EMC      H 2963   0.938   1.235   0.548
  198EMC      H 2964   0.898   1.131   0.687
  198EMC      H 2965   0.906   1.064   0.523
  198EMC      H 2966   1.142   1.179   0.682
  198EMC      H 2967   1.114   1.007   0.657
  198EMC      H 2968   1.306   0.843   0.254
  198EMC      H 2969   1.313   0.962   0.121
  198EMC      H 2970   1.155   0.898   0.172
  199EMC      C 2971   0.669   2.677   2.557
  199EMC      C 2972   0.755   2.698   2.679
  199EMC      O 2973   0.673   2.716   2.795
  199EMC      C 2974   0.632   2.843   2.818
  199EMC      O 2975   0.659   2.941   2.751
  199EMC      O 2976   0.556   2.843   2.931
  199EMC      C 2977   0.506   2.972   2.967
  199EMC      H 2978   0.601   2.592   2.571
  199EMC      H 2979   0.732   2.657   2.469
  199EMC      H 2980   0.607   2.764   2.536
  199EMC      H 2981   0.817   2.609   2.697
  199EMC      H 2982   0.825   2.782   2.666
  199EMC      H 2983   0.589   3.041   2.988
  199EMC      H 2984   0.447   2.960   3.058
  199EMC      H 2985   0.441   3.011   2.889
  200EMC      C 2986   0.854   3.684   3.452
  200EMC      C 2987   0.945   3.779   3.379
  200EMC      O 2988   1.028   3.709   3.286
  200EMC      C 2989   1.144   3.659   3.338
  200EMC      O 2990   1.181   3.670   3.453
  200EMC      O 2991   1.210   3.595   3.239
  200EMC      C 2992   1.334   3.538   3.280
  200EMC      H 2993   0.794   3.625   3.381
  200EMC      H 2994   0.786   3.739   3.519
  200EMC      H 2995   0.910   3.613   3.512
  200EMC      H 2996   0.885   3.850   3.320
  200EMC      H 2997   1.004   3.840   3.449
  200EMC      H 2998   1.403   3.616   3.315
  200EMC      H 2999   1.379   3.490   3.193
  200EMC      H 3000   1.318   3.462   3.357
  201EMC      C 3001   0.222   1.642   2.650
  201EMC      C 3002   0.295   1.729   2.749
  201EMC      O 3003   0.407   1.793   2.687
  201EMC      C 3004   0.522   1.720   2.686
  201EMC      O 3005   0.537   1.609   2.733
  201EMC      O 3006   0.617   1.794   2.625
  201EMC      C 3007   0.744   1.730   2.617
  201EMC      H 3008   0.191   1.700   2.562
  201EMC      H 3009   0.132   1.597   2.695
  201EMC      H 3010   0.285   1.561   2.613
  201EMC      H 3011   0.228   1.809   2.785
  201EMC      H 3012   0.325   1.672   2.838
  201EMC      H 3013   0.784   1.710   2.717
  201EMC      H 3014   0.813   1.798   2.566
  201EMC      H 3015   0.737   1.638   2.559
  202EMC      C 3016   2.350   0.451   1.027
  202EMC      C 3017   2.393   0.374   0.904
  202EMC      O 3018   2.477   0.265   0.940
  202EMC      C 3019   2.609   0.294   0.952
  202EMC      O 3020   2.660   0.403   0.935
  202EMC      O 3021   2.674   0.180   0.987
  202EMC      C 3022   2.815   0.197   1.002
  202EMC      H 3023   2.300   0.384   1.099
  202EMC      H 3024   2.280   0.532   1.000
  202EMC      H 3025   2.435   0.495   1.079
  202EMC      H 3026   2.304   0.332   0.854
  202EMC      H 3027   2.441   0.440   0.831
  202EMC      H 3028   2.861   0.229   0.908
  202EMC      H 3029   2.858   0.100   1.030
  202EMC      H 3030   2.837   0.268   1.082
  203EMC      C 3031   3.090   3.317   1.387
  203EMC      C 3032   3.228   3.306   1.326
  203EMC      O 3033   3.244   3.402   1.221
  203EMC      C 3034   3.201   3.362   1.098
  203EMC      O 3035   3.151   3.254   1.071
  203EMC      O 3036   3.223   3.463   1.011
  203EMC      C 3037   3.182   3.434   0.877
  203EMC      H 3038   3.072   3.419   1.423
  203EMC      H 3039   3.080   3.248   1.472
  203EMC      H 3040   3.013   3.295   1.314
  203EMC      H 3041   3.305   3.328   1.402
  203EMC      H 3042   3.248   3.204   1.291
  203EMC      H 3043   3.238   3.348   0.837
  203EMC      H 3044   3.204   3.522   0.816
  203EMC      H 3045   3.075   3.416   0.873
  204EMC      C 3046   3.914   2.907   0.205
  204EMC      C 3047   3.787   2.939   0.281
  204EMC      O 3048   3.801   2.906   0.419
  204EMC      C 3049   3.772   2.777   0.451
  204EMC      O 3050   3.735   2.691   0.374
  204EMC      O 3051   3.790   2.762   0.585
  204EMC      C 3052   3.762   2.630   0.633
  204EMC      H 3053   4.000   2.958   0.250
  204EMC      H 3054   3.905   2.938   0.100
  204EMC      H 3055   3.935   2.800   0.208
  204EMC      H 3056   3.768   3.048   0.276
  204EMC      H 3057   3.700   2.890   0.236
  204EMC      H 3058   3.657   2.604   0.615
  204EMC      H 3059   3.780   2.629   0.740
  204EMC      H 3060   3.828   2.558   0.586
  205EMC      C 3061   1.248   0.192   2.969
  205EMC      C 3062   1.237   0.201   3.120
  205EMC      O 3063   1.118   0.270   3.158
  205EMC      C 3064   1.128   0.405   3.164
  205EMC      O 3065   1.227   0.471   3.140
  205EMC      O 3066   1.007   0.454   3.201
  205EMC      C 3067   1.003   0.597   3.212
  205EMC      H 3068   1.158   0.144   2.928
  205EMC      H 3069   1.336   0.134   2.940
  205EMC      H 3070   1.254   0.291   2.924
  205EMC      H 3071   1.231   0.100   3.163
  205EMC      H 3072   1.327   0.248   3.164
  205EMC      H 3073   1.074   0.632   3.288
  205EMC      H 3074   0.902   0.626   3.242
  205EMC      H 3075   1.025   0.643   3.115
  206EMC      C 3076   3.207   3.367   3.054
  206EMC      C 3077   3.068   3.316   3.023
  206EMC      O 3078   3.024   3.223   3.123
  206EMC      C 3079   3.062   3.094   3.102
  206EMC      O 3080   3.127   3.052   3.009
  206EMC      O 3081   3.013   3.020   3.205
  206EMC      C 3082   3.045   2.881   3.197
  206EMC      H 3083   3.210   3.411   3.155
  206EMC      H 3084   3.238   3.442   2.981
  206EMC      H 3085   3.280   3.286   3.053
  206EMC      H 3086   2.996   3.400   3.024
  206EMC      H 3087   3.063   3.272   2.922
  206EMC      H 3088   3.002   2.837   3.106
  206EMC      H 3089   3.002   2.831   3.283
  206EMC      H 3090   3.153   2.866   3.199
  207EMC      C 3091   1.878   1.013   2.129
  207EMC      C 3092   1.778   0.900   2.121
  207EMC      O 3093   1.840   0.782   2.068
  207EMC      C 3094   1.842   0.774   1.932
  207EMC      O 3095   1.796   0.855   1.854
  207EMC      O 3096   1.903   0.658   1.899
  207EMC      C 3097   1.912   0.635   1.758
  207EMC      H 3098   1.965   0.983   2.189
  207EMC      H 3099   1.833   1.101   2.176
  207EMC      H 3100   1.915   1.041   2.031
  207EMC      H 3101   1.742   0.874   2.222
  207EMC      H 3102   1.690   0.929   2.063
  207EMC      H 3103   1.811   0.629   1.713
  207EMC      H 3104   1.962   0.540   1.742
  207EMC      H 3105   1.970   0.714   1.710
  208EMC      C 3106   2.881   0.925   0.509
  208EMC      C 3107   3.004   0.868   0.442
  208EMC      O 3108   3.122   0.915   0.506
  208EMC      C 3109   3.170   1.034   0.462
  208EMC      O 3110   3.121   1.103   0.374
  208EMC      O 3111   3.281   1.064   0.533
  208EMC      C 3112   3.342   1.188   0.496
  208EMC      H 3113   2.881   0.901   0.616
  208EMC      H 3114   2.789   0.885   0.464
  208EMC      H 3115   2.878   1.034   0.501
  208EMC      H 3116   3.003   0.758   0.451
  208EMC      H 3117   3.004   0.891   0.334
  208EMC      H 3118   3.374   1.186   0.391
  208EMC      H 3119   3.431   1.202   0.558
  208EMC      H 3120   3.274   1.271   0.514
  209EMC      C 3121   0.954   2.167   1.803
  209EMC      C 3122   0.836   2.201   1.716
  209EMC      O 3123   0.857   2.325   1.649
  209EMC      C 3124   0.819   2.436   1.719
  209EMC      O 3125   0.770   2.437   1.831
  209EMC      O 3126   0.846   2.545   1.643
  209EMC      C 3127   0.811   2.668   1.705
  209EMC      H 3128   1.047   2.166   1.745
  209EMC      H 3129   0.941   2.068   1.850
  209EMC      H 3130   0.967   2.240   1.882
  209EMC      H 3131   0.825   2.124   1.637
  209EMC      H 3132   0.742   2.200   1.773
  209EMC      H 3133   0.703   2.673   1.725
  209EMC      H 3134   0.836   2.749   1.636
  209EMC      H 3135   0.868   2.683   1.797
  210EMC      C 3136   0.410   0.764   0.786
  210EMC      C 3137   0.420   0.628   0.722
  210EMC      O 3138   0.547   0.611   0.659
  210EMC      C 3139   0.554   0.656   0.531
  210EMC      O 3140   0.465   0.708   0.468
  210EMC      O 3141   0.680   0.633   0.486
  210EMC      C 3142   0.702   0.676   0.352
  210EMC      H 3143   0.493   0.780   0.857
  210EMC      H 3144   0.315   0.775   0.840
  210EMC      H 3145   0.416   0.843   0.712
  210EMC      H 3146   0.412   0.550   0.800
  210EMC      H 3147   0.337   0.610   0.653
  210EMC      H 3148   0.636   0.623   0.282
  210EMC      H 3149   0.806   0.653   0.325
  210EMC      H 3150   0.688   0.784   0.343
  211EMC      C 3151   2.488   1.646   2.526
  211EMC      C 3152   2.527   1.581   2.395
  211EMC      O 3153   2.414   1.514   2.337
  211EMC      C 3154   2.394   1.386   2.380
  211EMC      O 3155   2.462   1.326   2.460
  211EMC      O 3156   2.285   1.338   2.316
  211EMC      C 3157   2.251   1.204   2.351
  211EMC      H 3158   2.404   1.715   2.512
  211EMC      H 3159   2.573   1.702   2.568
  211EMC      H 3160   2.457   1.572   2.600
  211EMC      H 3161   2.559   1.658   2.324
  211EMC      H 3162   2.612   1.512   2.408
  211EMC      H 3163   2.333   1.135   2.324
  211EMC      H 3164   2.163   1.175   2.294
  211EMC      H 3165   2.228   1.196   2.457
  212EMC      C 3166   1.797   3.803   1.576
  212EMC      C 3167   1.857   3.941   1.563
  212EMC      O 3168   1.998   3.933   1.542
  212EMC      C 3169   2.074   3.926   1.655
  212EMC      O 3170   2.032   3.926   1.769
  212EMC      O 3171   2.204   3.919   1.617
  212EMC      C 3172   2.295   3.911   1.727
  212EMC      H 3173   1.821   3.742   1.488
  212EMC      H 3174   1.688   3.809   1.586
  212EMC      H 3175   1.837   3.750   1.663
  212EMC      H 3176   1.814   3.992   1.475
  212EMC      H 3177   1.833   4.004   1.650
  212EMC      H 3178   2.288   4.000   1.790
  212EMC      H 3179   2.396   3.906   1.686
  212EMC      H 3180   2.277   3.820   1.785
  213EMC      C 3181   2.492   1.652   1.969
  213EMC      C 3182   2.596   1.675   1.862
  213EMC      O 3183   2.719   1.611   1.895
  213EMC      C 3184   2.803   1.684   1.974
  213EMC      O 3185   2.783   1.796   2.016
  213EMC      O 3186   2.913   1.609   1.996
  213EMC      C 3187   3.011   1.673   2.077
  213EMC      H 3188   2.478   1.544   1.986
  213EMC      H 3189   2.396   1.696   1.941
  213EMC      H 3190   2.523   1.695   2.064
  213EMC      H 3191   2.561   1.631   1.766
  213EMC      H 3192   2.610   1.783   1.842
  213EMC      H 3193   3.048   1.765   2.029
  213EMC      H 3194   3.096   1.605   2.089
  213EMC      H 3195   2.971   1.695   2.176
  214EMC      C 3196   1.737   1.226   1.226
  214EMC      C 3197   1.732   1.280   1.367
  214EMC      O 3198   1.737   1.173   1.462
  214EMC      C 3199   1.618   1.117   1.494
  214EMC      O 3200   1.509   1.149   1.449
  214EMC      O 3201   1.641   1.018   1.584
  214EMC      C 3202   1.523   0.950   1.626
  214EMC      H 3203   1.827   1.164   1.212
  214EMC      H 3204   1.739   1.308   1.153
  214EMC      H 3205   1.651   1.163   1.205
  214EMC      H 3206   1.819   1.344   1.386
  214EMC      H 3207   1.643   1.343   1.383
  214EMC      H 3208   1.453   1.019   1.676
  214EMC      H 3209   1.552   0.873   1.698
  214EMC      H 3210   1.474   0.901   1.541
  215EMC      C 3211   2.507   3.259   0.941
  215EMC      C 3212   2.601   3.228   1.056
  215EMC      O 3213   2.639   3.348   1.123
  215EMC      C 3214   2.747   3.413   1.070
  215EMC      O 3215   2.811   3.378   0.973
  215EMC      O 3216   2.769   3.523   1.145
  215EMC      C 3217   2.880   3.601   1.100
  215EMC      H 3218   2.419   3.314   0.977
  215EMC      H 3219   2.473   3.166   0.893
  215EMC      H 3220   2.555   3.321   0.866
  215EMC      H 3221   2.550   3.164   1.130
  215EMC      H 3222   2.688   3.171   1.021
  215EMC      H 3223   2.974   3.543   1.105
  215EMC      H 3224   2.890   3.687   1.167
  215EMC      H 3225   2.863   3.638   0.999
  216EMC      C 3226   2.185   3.024   1.079
  216EMC      C 3227   2.035   3.038   1.095
  216EMC      O 3228   1.983   3.135   1.004
  216EMC      C 3229   1.986   3.263   1.049
  216EMC      O 3230   2.028   3.301   1.156
  216EMC      O 3231   1.934   3.342   0.951
  216EMC      C 3232   1.930   3.481   0.985
  216EMC      H 3233   2.210   2.999   0.975
  216EMC      H 3234   2.224   2.945   1.144
  216EMC      H 3235   2.236   3.117   1.103
  216EMC      H 3236   1.986   2.942   1.071
  216EMC      H 3237   2.008   3.061   1.199
  216EMC      H 3238   1.867   3.498   1.073
  216EMC      H 3239   1.887   3.535   0.901
  216EMC      H 3240   2.031   3.519   1.002
  217EMC      C 3241   1.594   2.857   0.181
  217EMC      C 3242   1.663   2.983   0.227
  217EMC      O 3243   1.572   3.068   0.297
  217EMC      C 3244   1.499   3.152   0.218
  217EMC      O 3245   1.506   3.161   0.097
  217EMC      O 3246   1.418   3.225   0.298
  217EMC      C 3247   1.336   3.319   0.229
  217EMC      H 3248   1.547   2.805   0.266
  217EMC      H 3249   1.665   2.789   0.133
  217EMC      H 3250   1.514   2.879   0.110
  217EMC      H 3251   1.743   2.957   0.298
  217EMC      H 3252   1.711   3.035   0.143
  217EMC      H 3253   1.398   3.393   0.175
  217EMC      H 3254   1.275   3.372   0.302
  217EMC      H 3255   1.269   3.267   0.159
  218EMC      C 3256   3.596   1.798   2.594
  218EMC      C 3257   3.452   1.840   2.577
  218EMC      O 3258   3.365   1.756   2.652
  218EMC      C 3259   3.326   1.642   2.589
  218EMC      O 3260   3.356   1.608   2.477
  218EMC      O 3261   3.245   1.574   2.674
  218EMC      C 3262   3.195   1.451   2.620
  218EMC      H 3263   3.623   1.797   2.700
  218EMC      H 3264   3.663   1.867   2.541
  218EMC      H 3265   3.613   1.698   2.556
  218EMC      H 3266   3.438   1.943   2.615
  218EMC      H 3267   3.423   1.844   2.470
  218EMC      H 3268   3.134   1.470   2.530
  218EMC      H 3269   3.131   1.404   2.695
  218EMC      H 3270   3.277   1.383   2.597
  219EMC      C 3271   2.067   0.573   0.711
  219EMC      C 3272   2.051   0.696   0.625
  219EMC      O 3273   1.985   0.664   0.502
  219EMC      C 3274   2.066   0.621   0.402
  219EMC      O 3275   2.187   0.609   0.408
  219EMC      O 3276   1.989   0.594   0.294
  219EMC      C 3277   2.062   0.548   0.181
  219EMC      H 3278   1.970   0.525   0.729
  219EMC      H 3279   2.112   0.599   0.808
  219EMC      H 3280   2.130   0.499   0.662
  219EMC      H 3281   1.987   0.770   0.677
  219EMC      H 3282   2.147   0.746   0.607
  219EMC      H 3283   2.134   0.624   0.147
  219EMC      H 3284   1.991   0.530   0.100
  219EMC      H 3285   2.113   0.454   0.203
  220EMC      C 3286   3.029   1.396   0.486
  220EMC      C 3287   3.047   1.403   0.636
  220EMC      O 3288   3.034   1.537   0.683
  220EMC      C 3289   3.148   1.611   0.679
  220EMC      O 3290   3.257   1.573   0.642
  220EMC      O 3291   3.119   1.735   0.726
  220EMC      C 3292   3.231   1.824   0.729
  220EMC      H 3293   2.932   1.440   0.457
  220EMC      H 3294   3.032   1.293   0.451
  220EMC      H 3295   3.106   1.453   0.435
  220EMC      H 3296   2.968   1.344   0.686
  220EMC      H 3297   3.142   1.358   0.667
  220EMC      H 3298   3.310   1.785   0.795
  220EMC      H 3299   3.197   1.920   0.768
  220EMC      H 3300   3.269   1.839   0.628
  221EMC      C 3301   1.512   3.198   3.918
  221EMC      C 3302   1.446   3.253   3.794
  221EMC      O 3303   1.346   3.349   3.829
  221EMC      C 3304   1.223   3.297   3.854
  221EMC      O 3305   1.192   3.179   3.849
  221EMC      O 3306   1.140   3.399   3.885
  221EMC      C 3307   1.006   3.359   3.914
  221EMC      H 3308   1.553   3.279   3.980
  221EMC      H 3309   1.594   3.129   3.892
  221EMC      H 3310   1.440   3.144   3.980
  221EMC      H 3311   1.522   3.307   3.733
  221EMC      H 3312   1.406   3.173   3.730
  221EMC      H 3313   0.960   3.310   3.827
  221EMC      H 3314   0.948   3.448   3.937
  221EMC      H 3315   1.004   3.293   4.001
  222EMC      C 3316   1.805   1.059   3.671
  222EMC      C 3317   1.833   1.192   3.603
  222EMC      O 3318   1.956   1.247   3.651
  222EMC      C 3319   1.945   1.322   3.764
  222EMC      O 3320   1.843   1.346   3.825
  222EMC      O 3321   2.069   1.367   3.796
  222EMC      C 3322   2.073   1.448   3.913
  222EMC      H 3323   1.889   0.990   3.656
  222EMC      H 3324   1.714   1.014   3.629
  222EMC      H 3325   1.792   1.072   3.778
  222EMC      H 3326   1.846   1.176   3.495
  222EMC      H 3327   1.749   1.262   3.615
  222EMC      H 3328   2.012   1.539   3.900
  222EMC      H 3329   2.177   1.479   3.930
  222EMC      H 3330   2.040   1.391   4.000
  223EMC      C 3331   2.312   0.180   1.554
  223EMC      C 3332   2.370   0.299   1.482
  223EMC      O 3333   2.484   0.262   1.405
  223EMC      C 3334   2.602   0.261   1.472
  223EMC      O 3335   2.619   0.290   1.589
  223EMC      O 3336   2.699   0.223   1.386
  223EMC      C 3337   2.830   0.219   1.443
  223EMC      H 3338   2.287   0.100   1.482
  223EMC      H 3339   2.221   0.207   1.608
  223EMC      H 3340   2.383   0.138   1.625
  223EMC      H 3341   2.296   0.340   1.412
  223EMC      H 3342   2.393   0.381   1.553
  223EMC      H 3343   2.860   0.319   1.479
  223EMC      H 3344   2.900   0.188   1.366
  223EMC      H 3345   2.834   0.146   1.524
  224EMC      C 3346   2.036   2.649   2.984
  224EMC      C 3347   2.181   2.685   3.006
  224EMC      O 3348   2.193   2.791   3.102
  224EMC      C 3349   2.183   2.917   3.051
  224EMC      O 3350   2.167   2.946   2.935
  224EMC      O 3351   2.196   3.004   3.154
  224EMC      C 3352   2.188   3.141   3.115
  224EMC      H 3353   1.988   2.623   3.079
  224EMC      H 3354   2.027   2.564   2.915
  224EMC      H 3355   1.981   2.733   2.942
  224EMC      H 3356   2.235   2.598   3.048
  224EMC      H 3357   2.232   2.710   2.912
  224EMC      H 3358   2.270   3.166   3.045
  224EMC      H 3359   2.200   3.203   3.204
  224EMC      H 3360   2.091   3.163   3.070
  225EMC      C 3361   2.312   0.791   3.410
  225EMC      C 3362   2.245   0.846   3.534
  225EMC      O 3363   2.302   0.972   3.570
  225EMC      C 3364   2.412   0.965   3.649
  225EMC      O 3365   2.465   0.864   3.691
  225EMC      O 3366   2.454   1.092   3.674
  225EMC      C 3367   2.570   1.099   3.757
  225EMC      H 3368   2.306   0.863   3.328
  225EMC      H 3369   2.264   0.697   3.379
  225EMC      H 3370   2.417   0.771   3.428
  225EMC      H 3371   2.138   0.864   3.513
  225EMC      H 3372   2.248   0.774   3.617
  225EMC      H 3373   2.550   1.055   3.856
  225EMC      H 3374   2.595   1.205   3.771
  225EMC      H 3375   2.655   1.050   3.709
  226EMC      C 3376   3.190   3.194   0.529
  226EMC      C 3377   3.111   3.289   0.443
  226EMC      O 3378   3.192   3.399   0.402
  226EMC      C 3379   3.197   3.503   0.489
  226EMC      O 3380   3.140   3.511   0.596
  226EMC      O 3381   3.277   3.598   0.436
  226EMC      C 3382   3.292   3.715   0.517
  226EMC      H 3383   3.280   3.159   0.476
  226EMC      H 3384   3.130   3.106   0.556
  226EMC      H 3385   3.224   3.242   0.621
  226EMC      H 3386   3.078   3.237   0.352
  226EMC      H 3387   3.019   3.322   0.494
  226EMC      H 3388   3.194   3.764   0.532
  226EMC      H 3389   3.358   3.785   0.465
  226EMC      H 3390   3.337   3.689   0.613
  227EMC      C 3391   3.410   2.898   0.715
  227EMC      C 3392   3.539   2.972   0.742
  227EMC      O 3393   3.513   3.106   0.786
  227EMC      C 3394   3.497   3.197   0.686
  227EMC      O 3395   3.504   3.175   0.567
  227EMC      O 3396   3.473   3.317   0.743
  227EMC      C 3397   3.454   3.424   0.650
  227EMC      H 3398   3.345   2.900   0.804
  227EMC      H 3399   3.430   2.794   0.688
  227EMC      H 3400   3.354   2.945   0.635
  227EMC      H 3401   3.594   2.922   0.824
  227EMC      H 3402   3.605   2.970   0.655
  227EMC      H 3403   3.545   3.438   0.589
  227EMC      H 3404   3.436   3.515   0.706
  227EMC      H 3405   3.368   3.404   0.586
  228EMC      C 3406   2.695   2.213   1.948
  228EMC      C 3407   2.804   2.245   1.849
  228EMC      O 3408   2.896   2.136   1.838
  228EMC      C 3409   2.997   2.136   1.929
  228EMC      O 3410   3.015   2.218   2.017
  228EMC      O 3411   3.074   2.027   1.906
  228EMC      C 3412   3.184   2.013   1.995
  228EMC      H 3413   2.643   2.120   1.919
  228EMC      H 3414   2.621   2.294   1.951
  228EMC      H 3415   2.734   2.198   2.048
  228EMC      H 3416   2.761   2.260   1.749
  228EMC      H 3417   2.855   2.339   1.875
  228EMC      H 3418   3.252   2.100   1.986
  228EMC      H 3419   3.240   1.923   1.967
  228EMC      H 3420   3.150   2.002   2.098
  229EMC      C 3421   3.001   3.060   3.537
  229EMC      C 3422   3.114   3.101   3.444
  229EMC      O 3423   3.229   3.141   3.519
  229EMC      C 3424   3.231   3.271   3.557
  229EMC      O 3425   3.146   3.355   3.533
  229EMC      O 3426   3.346   3.292   3.627
  229EMC      C 3427   3.362   3.426   3.673
  229EMC      H 3428   3.034   2.981   3.605
  229EMC      H 3429   2.915   3.024   3.479
  229EMC      H 3430   2.969   3.144   3.599
  229EMC      H 3431   3.144   3.015   3.382
  229EMC      H 3432   3.082   3.180   3.374
  229EMC      H 3433   3.365   3.496   3.588
  229EMC      H 3434   3.456   3.432   3.727
  229EMC      H 3435   3.281   3.453   3.742
  230EMC      C 3436   1.001   1.464   3.469
  230EMC      C 3437   0.947   1.324   3.488
  230EMC      O 3438   1.043   1.241   3.554
  230EMC      C 3439   1.133   1.181   3.472
  230EMC      O 3440   1.138   1.191   3.351
  230EMC      O 3441   1.216   1.107   3.550
  230EMC      C 3442   1.317   1.037   3.476
  230EMC      H 3443   1.032   1.507   3.566
  230EMC      H 3444   0.925   1.529   3.424
  230EMC      H 3445   1.089   1.464   3.405
  230EMC      H 3446   0.857   1.328   3.553
  230EMC      H 3447   0.914   1.281   3.393
  230EMC      H 3448   1.271   0.966   3.406
  230EMC      H 3449   1.378   0.981   3.547
  230EMC      H 3450   1.381   1.107   3.423
  231EMC      C 3451   3.873   1.753   2.301
  231EMC      C 3452   3.822   1.661   2.193
  231EMC      O 3453   3.705   1.714   2.132
  231EMC      C 3454   3.588   1.684   2.195
  231EMC      O 3455   3.575   1.617   2.295
  231EMC      O 3456   3.487   1.742   2.125
  231EMC      C 3457   3.357   1.718   2.180
  231EMC      H 3458   3.891   1.854   2.260
  231EMC      H 3459   3.967   1.715   2.344
  231EMC      H 3460   3.801   1.764   2.382
  231EMC      H 3461   3.898   1.651   2.114
  231EMC      H 3462   3.805   1.559   2.232
  231EMC      H 3463   3.335   1.610   2.180
  231EMC      H 3464   3.284   1.768   2.117
  231EMC      H 3465   3.350   1.759   2.281
  232EMC      C 3466   3.387   1.652   2.895
  232EMC      C 3467   3.344   1.514   2.939
  232EMC      O 3468   3.454   1.442   2.995
  232EMC      C 3469   3.531   1.374   2.906
  232EMC      O 3470   3.514   1.370   2.785
  232EMC      O 3471   3.630   1.312   2.974
  232EMC      C 3472   3.719   1.236   2.892
  232EMC      H 3473   3.433   1.706   2.979
  232EMC      H 3474   3.302   1.709   2.858
  232EMC      H 3475   3.462   1.646   2.816
  232EMC      H 3476   3.268   1.523   3.019
  232EMC      H 3477   3.297   1.458   2.857
  232EMC      H 3478   3.664   1.156   2.840
  232EMC      H 3479   3.794   1.191   2.957
  232EMC      H 3480   3.769   1.301   2.821
  233EMC      C 3481   1.821   3.641   3.591
  233EMC      C 3482   1.761   3.696   3.463
  233EMC      O 3483   1.651   3.616   3.421
  233EMC      C 3484   1.683   3.509   3.344
  233EMC      O 3485   1.795   3.477   3.308
  233EMC      O 3486   1.568   3.444   3.313
  233EMC      C 3487   1.587   3.329   3.231
  233EMC      H 3488   1.745   3.634   3.669
  233EMC      H 3489   1.902   3.706   3.627
  233EMC      H 3490   1.861   3.541   3.575
  233EMC      H 3491   1.722   3.798   3.482
  233EMC      H 3492   1.837   3.706   3.384
  233EMC      H 3493   1.632   3.357   3.134
  233EMC      H 3494   1.489   3.285   3.212
  233EMC      H 3495   1.649   3.255   3.282
  234EMC      C 3496   3.497   2.581   1.988
  234EMC      C 3497   3.401   2.658   1.900
  234EMC      O 3498   3.457   2.784   1.862
  234EMC      C 3499   3.436   2.885   1.950
  234EMC      O 3500   3.374   2.878   2.055
  234EMC      O 3501   3.495   2.997   1.900
  234EMC      C 3502   3.480   3.112   1.983
  234EMC      H 3503   3.594   2.569   1.938
  234EMC      H 3504   3.456   2.482   2.012
  234EMC      H 3505   3.515   2.634   2.081
  234EMC      H 3506   3.384   2.602   1.806
  234EMC      H 3507   3.303   2.670   1.947
  234EMC      H 3508   3.374   3.138   1.995
  234EMC      H 3509   3.530   3.196   1.934
  234EMC      H 3510   3.527   3.096   2.080
  235EMC      C 3511   2.101   1.622   3.676
  235EMC      C 3512   2.047   1.755   3.725
  235EMC      O 3513   2.148   1.856   3.717
  235EMC      C 3514   2.230   1.865   3.825
  235EMC      O 3515   2.225   1.796   3.925
  235EMC      O 3516   2.319   1.964   3.802
  235EMC      C 3517   2.412   1.985   3.908
  235EMC      H 3518   2.140   1.632   3.574
  235EMC      H 3519   2.022   1.546   3.676
  235EMC      H 3520   2.183   1.587   3.739
  235EMC      H 3521   1.964   1.787   3.661
  235EMC      H 3522   2.006   1.746   3.827
  235EMC      H 3523   2.360   2.014   4.000
  235EMC      H 3524   2.479   2.067   3.879
  235EMC      H 3525   2.473   1.896   3.924
  236EMC      C 3526   1.639   2.529   2.737
  236EMC      C 3527   1.740   2.458   2.824
  236EMC      O 3528   1.693   2.450   2.959
  236EMC      C 3529   1.722   2.557   3.037
  236EMC      O 3530   1.783   2.657   3.002
  236EMC      O 3531   1.671   2.534   3.160
  236EMC      C 3532   1.695   2.640   3.253
  236EMC      H 3533   1.541   2.480   2.743
  236EMC      H 3534   1.672   2.530   2.632
  236EMC      H 3535   1.625   2.632   2.769
  236EMC      H 3536   1.753   2.354   2.788
  236EMC      H 3537   1.839   2.505   2.818
  236EMC      H 3538   1.803   2.655   3.269
  236EMC      H 3539   1.651   2.612   3.349
  236EMC      H 3540   1.648   2.732   3.219
  237EMC      C 3541   3.421   2.253   1.826
  237EMC      C 3542   3.415   2.125   1.747
  237EMC      O 3543   3.384   2.151   1.610
  237EMC      C 3544   3.251   2.160   1.581
  237EMC      O 3545   3.159   2.146   1.660
  237EMC      O 3546   3.239   2.185   1.449
  237EMC      C 3547   3.103   2.196   1.404
  237EMC      H 3548   3.493   2.323   1.781
  237EMC      H 3549   3.451   2.234   1.930
  237EMC      H 3550   3.324   2.304   1.827
  237EMC      H 3551   3.514   2.076   1.748
  237EMC      H 3552   3.344   2.053   1.791
  237EMC      H 3553   3.049   2.102   1.421
  237EMC      H 3554   3.105   2.217   1.297
  237EMC      H 3555   3.053   2.279   1.454
  238EMC      C 3556   1.497   1.570   1.244
  238EMC      C 3557   1.634   1.625   1.275
  238EMC      O 3558   1.637   1.766   1.254
  238EMC      C 3559   1.665   1.805   1.126
  238EMC      O 3560   1.687   1.732   1.032
  238EMC      O 3561   1.664   1.940   1.123
  238EMC      C 3562   1.692   1.995   0.994
  238EMC      H 3563   1.420   1.621   1.304
  238EMC      H 3564   1.492   1.462   1.267
  238EMC      H 3565   1.471   1.584   1.140
  238EMC      H 3566   1.658   1.608   1.382
  238EMC      H 3567   1.712   1.573   1.218
  238EMC      H 3568   1.793   1.966   0.960
  238EMC      H 3569   1.689   2.104   1.002
  238EMC      H 3570   1.617   1.964   0.922
  239EC       O 3571   3.226   3.742   2.178
  239EC       C 3572   3.305   3.773   2.266
  239EC       O 3573   3.270   3.802   2.395
  239EC       C 3574   3.384   3.856   2.457
  239EC       C 3575   3.496   3.797   2.377
  239EC       O 3576   3.440   3.784   2.248
  239EC       H 3577   3.380   3.965   2.448
  239EC       H 3578   3.389   3.829   2.562
  239EC       H 3579   3.525   3.698   2.414
  239EC       H 3580   3.585   3.861   2.375
  240EC       O 3581   1.642   0.433   1.179
  240EC       C 3582   1.555   0.349   1.163
  240EC       O 3583   1.525   0.289   1.045
  240EC       C 3584   1.405   0.218   1.064
  240EC       C 3585   1.406   0.190   1.211
  240EC       O 3586   1.475   0.303   1.264
  240EC       H 3587   1.322   0.282   1.034
  240EC       H 3588   1.403   0.127   1.004
  240EC       H 3589   1.463   0.100   1.235
  240EC       H 3590   1.306   0.182   1.253
  241EC       O 3591   1.511   0.486   0.948
  241EC       C 3592   1.554   0.556   0.857
  241EC       O 3593   1.479   0.609   0.757
  241EC       C 3594   1.569   0.660   0.661
  241EC       C 3595   1.691   0.689   0.743
  241EC       O 3596   1.686   0.589   0.844
  241EC       H 3597   1.586   0.583   0.586
  241EC       H 3598   1.529   0.750   0.613
  241EC       H 3599   1.686   0.788   0.790
  241EC       H 3600   1.783   0.682   0.685
  242EC       O 3601   1.964   2.933   2.850
  242EC       C 3602   2.039   2.894   2.762
  242EC       O 3603   2.098   2.974   2.669
  242EC       C 3604   2.155   2.888   2.573
  242EC       C 3605   2.180   2.763   2.651
  242EC       O 3606   2.075   2.763   2.745
  242EC       H 3607   2.083   2.873   2.492
  242EC       H 3608   2.247   2.930   2.531
  242EC       H 3609   2.276   2.766   2.704
  242EC       H 3610   2.177   2.673   2.589
  243EC       O 3611   1.310   2.651   0.347
  243EC       C 3612   1.262   2.760   0.319
  243EC       O 3613   1.129   2.790   0.319
  243EC       C 3614   1.115   2.916   0.258
  243EC       C 3615   1.248   2.980   0.283
  243EC       O 3616   1.337   2.869   0.283
  243EC       H 3617   1.096   2.901   0.151
  243EC       H 3618   1.033   2.973   0.301
  243EC       H 3619   1.252   3.028   0.381
  243EC       H 3620   1.277   3.052   0.206
  244EC       O 3621   2.057   1.002   0.714
  244EC       C 3622   2.064   1.121   0.738
  244EC       O 3623   2.126   1.175   0.847
  244EC       C 3624   2.091   1.311   0.851
  244EC       C 3625   2.059   1.342   0.708
  244EC       O 3626   2.008   1.219   0.659
  244EC       H 3627   2.003   1.322   0.916
  244EC       H 3628   2.172   1.373   0.889
  244EC       H 3629   2.149   1.368   0.651
  244EC       H 3630   1.985   1.422   0.696
  245EC       O 3631   2.972   0.849   0.869
  245EC       C 3632   3.021   0.885   0.975
  245EC       O 3633   2.967   0.979   1.058
  245EC       C 3634   3.065   1.008   1.155
  245EC       C 3635   3.147   0.884   1.158
  245EC       O 3636   3.139   0.836   1.025
  245EC       H 3637   3.122   1.095   1.120
  245EC       H 3638   3.020   1.031   1.251
  245EC       H 3639   3.105   0.808   1.226
  245EC       H 3640   3.251   0.902   1.186
  246EC       O 3641   2.681   3.189   3.232
  246EC       C 3642   2.757   3.274   3.274
  246EC       O 3643   2.891   3.255   3.296
  246EC       C 3644   2.937   3.367   3.366
  246EC       C 3645   2.840   3.474   3.327
  246EC       O 3646   2.720   3.402   3.307
  246EC       H 3647   2.933   3.345   3.473
  246EC       H 3648   3.040   3.393   3.339
  246EC       H 3649   2.868   3.523   3.233
  246EC       H 3650   2.827   3.551   3.404
  247EC       O 3651   3.060   2.279   3.364
  247EC       C 3652   3.122   2.214   3.447
  247EC       O 3653   3.167   2.263   3.566
  247EC       C 3654   3.254   2.165   3.619
  247EC       C 3655   3.204   2.039   3.556
  247EC       O 3656   3.156   2.082   3.430
  247EC       H 3657   3.356   2.189   3.588
  247EC       H 3658   3.249   2.162   3.728
  247EC       H 3659   3.121   1.995   3.613
  247EC       H 3660   3.283   1.964   3.544
  248EC       O 3661   2.985   0.923   2.941
  248EC       C 3662   3.095   0.976   2.938
  248EC       O 3663   3.209   0.915   2.895
  248EC       C 3664   3.316   1.000   2.931
  248EC       C 3665   3.251   1.134   2.937
  248EC       O 3666   3.119   1.104   2.979
  248EC       H 3667   3.354   0.967   3.028
  248EC       H 3668   3.396   0.996   2.858
  248EC       H 3669   3.247   1.183   2.839
  248EC       H 3670   3.300   1.202   3.008
  249EC       O 3671   2.170   2.950   1.560
  249EC       C 3672   2.251   2.868   1.517
  249EC       O 3673   2.219   2.742   1.477
  249EC       C 3674   2.341   2.673   1.459
  249EC       C 3675   2.437   2.784   1.428
  249EC       O 3676   2.385   2.893   1.503
  249EC       H 3677   2.366   2.621   1.552
  249EC       H 3678   2.334   2.601   1.378
  249EC       H 3679   2.437   2.811   1.322
  249EC       H 3680   2.539   2.762   1.459
  250EC       O 3681   1.097   2.612   3.049
  250EC       C 3682   1.201   2.599   3.111
  250EC       O 3683   1.255   2.480   3.148
  250EC       C 3684   1.359   2.508   3.238
  250EC       C 3685   1.399   2.648   3.200
  250EC       O 3686   1.277   2.704   3.155
  250EC       H 3687   1.319   2.503   3.340
  250EC       H 3688   1.442   2.438   3.228
  250EC       H 3689   1.471   2.649   3.118
  250EC       H 3690   1.439   2.705   3.284
  251EC       O 3691   0.769   3.623   0.359
  251EC       C 3692   0.828   3.685   0.446
  251EC       O 3693   0.901   3.798   0.425
  251EC       C 3694   0.972   3.824   0.544
  251EC       C 3695   0.886   3.759   0.648
  251EC       O 3696   0.829   3.649   0.578
  251EC       H 3697   1.071   3.778   0.536
  251EC       H 3698   0.983   3.931   0.561
  251EC       H 3699   0.806   3.824   0.682
  251EC       H 3700   0.944   3.724   0.734
  252EC       O 3701   1.265   1.840   2.653
  252EC       C 3702   1.290   1.792   2.763
  252EC       O 3703   1.307   1.864   2.877
  252EC       C 3704   1.357   1.776   2.974
  252EC       C 3705   1.307   1.643   2.927
  252EC       O 3706   1.305   1.658   2.786
  252EC       H 3707   1.466   1.782   2.973
  252EC       H 3708   1.321   1.800   3.074
  252EC       H 3709   1.206   1.622   2.962
  252EC       H 3710   1.373   1.560   2.955
  253EC       O 3711   2.638   3.449   2.363
  253EC       C 3712   2.746   3.395   2.381
  253EC       O 3713   2.764   3.263   2.411
  253EC       C 3714   2.898   3.247   2.449
  253EC       C 3715   2.966   3.360   2.378
  253EC       O 3716   2.866   3.461   2.375
  253EC       H 3717   2.905   3.257   2.558
  253EC       H 3718   2.937   3.150   2.418
  253EC       H 3719   2.993   3.334   2.275
  253EC       H 3720   3.056   3.396   2.430
  254EC       O 3721   0.100   2.455   2.193
  254EC       C 3722   0.158   2.354   2.156
  254EC       O 3723   0.290   2.328   2.180
  254EC       C 3724   0.324   2.217   2.100
  254EC       C 3725   0.193   2.147   2.082
  254EC       O 3726   0.100   2.254   2.083
  254EC       H 3727   0.365   2.254   2.006
  254EC       H 3728   0.398   2.154   2.149
  254EC       H 3729   0.170   2.080   2.165
  254EC       H 3730   0.187   2.092   1.988
  255EC       O 3731   3.701   3.112   1.083
  255EC       C 3732   3.776   3.035   1.025
  255EC       O 3733   3.849   3.066   0.914
  255EC       C 3734   3.902   2.946   0.865
  255EC       C 3735   3.908   2.860   0.987
  255EC       O 3736   3.798   2.906   1.064
  255EC       H 3737   3.833   2.906   0.789
  255EC       H 3738   4.000   2.961   0.820
  255EC       H 3739   4.000   2.876   1.044
  255EC       H 3740   3.898   2.753   0.965
  256EC       O 3741   2.693   2.266   2.313
  256EC       C 3742   2.705   2.156   2.262
  256EC       O 3743   2.820   2.082   2.262
  256EC       C 3744   2.800   1.976   2.172
  256EC       C 3745   2.651   1.959   2.172
  256EC       O 3746   2.605   2.091   2.195
  256EC       H 3747   2.838   2.005   2.074
  256EC       H 3748   2.851   1.885   2.205
  256EC       H 3749   2.617   1.895   2.254
  256EC       H 3750   2.612   1.920   2.078
  257EC       O 3751   0.753   1.269   0.434
  257EC       C 3752   0.726   1.384   0.404
  257EC       O 3753   0.628   1.458   0.463
  257EC       C 3754   0.613   1.575   0.385
  257EC       C 3755   0.748   1.589   0.321
  257EC       O 3756   0.791   1.455   0.307
  257EC       H 3757   0.534   1.557   0.311
  257EC       H 3758   0.587   1.661   0.446
  257EC       H 3759   0.818   1.643   0.386
  257EC       H 3760   0.744   1.639   0.224
  258EC       O 3761   1.301   0.861   3.065
  258EC       C 3762   1.280   0.981   3.075
  258EC       O 3763   1.377   1.077   3.074
  258EC       C 3764   1.316   1.197   3.113
  258EC       C 3765   1.173   1.176   3.074
  258EC       O 3766   1.156   1.036   3.090
  258EC       H 3767   1.328   1.209   3.221
  258EC       H 3768   1.360   1.283   3.063
  258EC       H 3769   1.155   1.202   2.969
  258EC       H 3770   1.102   1.231   3.137
  259EC       O 3771   2.916   1.697   0.582
  259EC       C 3772   2.832   1.639   0.650
  259EC       O 3773   2.742   1.701   0.731
  259EC       C 3774   2.682   1.600   0.809
  259EC       C 3775   2.697   1.478   0.723
  259EC       O 3776   2.819   1.503   0.654
  259EC       H 3777   2.737   1.591   0.903
  259EC       H 3778   2.578   1.623   0.830
  259EC       H 3779   2.616   1.469   0.650
  259EC       H 3780   2.704   1.386   0.781
  260EC       O 3781   0.637   2.339   0.187
  260EC       C 3782   0.639   2.374   0.304
  260EC       O 3783   0.530   2.380   0.385
  260EC       C 3784   0.570   2.448   0.501
  260EC       C 3785   0.717   2.421   0.507
  260EC       O 3786   0.753   2.413   0.369
  260EC       H 3787   0.547   2.554   0.489
  260EC       H 3788   0.518   2.410   0.589
  260EC       H 3789   0.740   2.326   0.555
  260EC       H 3790   0.773   2.501   0.556
  261EC       O 3791   3.401   3.098   2.905
  261EC       C 3792   3.484   3.167   2.847
  261EC       O 3793   3.603   3.121   2.799
  261EC       C 3794   3.678   3.234   2.763
  261EC       C 3795   3.573   3.337   2.735
  261EC       O 3796   3.469   3.301   2.824
  261EC       H 3797   3.742   3.262   2.848
  261EC       H 3798   3.741   3.215   2.676
  261EC       H 3799   3.536   3.331   2.632
  261EC       H 3800   3.607   3.439   2.754
  262EC       O 3801   2.789   1.048   1.917
  262EC       C 3802   2.757   1.000   1.809
  262EC       O 3803   2.839   0.925   1.730
  262EC       C 3804   2.774   0.910   1.606
  262EC       C 3805   2.630   0.926   1.642
  262EC       O 3806   2.634   1.016   1.752
  262EC       H 3807   2.809   0.990   1.539
  262EC       H 3808   2.796   0.814   1.561
  262EC       H 3809   2.585   0.832   1.675
  262EC       H 3810   2.570   0.967   1.560
  263EC       O 3811   3.910   0.100   2.223
  263EC       C 3812   3.851   0.201   2.187
  263EC       O 3813   3.906   0.325   2.182
  263EC       C 3814   3.800   0.415   2.160
  263EC       C 3815   3.698   0.331   2.091
  263EC       O 3816   3.720   0.202   2.147
  263EC       H 3817   3.765   0.452   2.257
  263EC       H 3818   3.832   0.500   2.099
  263EC       H 3819   3.715   0.326   1.983
  263EC       H 3820   3.595   0.364   2.109
  264EC       O 3821   1.171   0.735   2.529
  264EC       C 3822   1.105   0.834   2.554
  264EC       O 3823   1.114   0.907   2.669
  264EC       C 3824   1.006   0.996   2.669
  264EC       C 3825   0.975   1.012   2.524
  264EC       O 3826   1.010   0.885   2.470
  264EC       H 3827   0.923   0.950   2.725
  264EC       H 3828   1.032   1.091   2.717
  264EC       H 3829   1.036   1.089   2.477
  264EC       H 3830   0.869   1.034   2.505
  265EC       O 3831   1.265   1.229   2.317
  265EC       C 3832   1.209   1.230   2.209
  265EC       O 3833   1.177   1.119   2.136
  265EC       C 3834   1.138   1.163   2.009
  265EC       C 3835   1.090   1.302   2.035
  265EC       O 3836   1.172   1.344   2.143
  265EC       H 3837   1.225   1.161   1.943
  265EC       H 3838   1.060   1.100   1.967
  265EC       H 3839   0.985   1.304   2.067
  265EC       H 3840   1.102   1.369   1.949
  266EC       O 3841   1.043   3.086   1.403
  266EC       C 3842   1.055   3.012   1.306
  266EC       O 3843   0.986   3.024   1.189
  266EC       C 3844   1.011   2.907   1.115
  266EC       C 3845   1.143   2.862   1.168
  266EC       O 3846   1.140   2.905   1.303
  266EC       H 3847   0.931   2.836   1.136
  266EC       H 3848   1.013   2.928   1.008
  266EC       H 3849   1.227   2.910   1.117
  266EC       H 3850   1.156   2.753   1.162
  267EC       O 3851   0.775   3.313   3.945
  267EC       C 3852   0.712   3.325   3.841
  267EC       O 3853   0.708   3.438   3.765
  267EC       C 3854   0.606   3.420   3.670
  267EC       C 3855   0.598   3.271   3.657
  267EC       O 3856   0.634   3.226   3.787
  267EC       H 3857   0.513   3.463   3.710
  267EC       H 3858   0.630   3.469   3.576
  267EC       H 3859   0.671   3.233   3.585
  267EC       H 3860   0.498   3.236   3.630
  268EC       O 3861   2.589   3.052   0.317
  268EC       C 3862   2.520   3.034   0.417
  268EC       O 3863   2.486   3.131   0.506
  268EC       C 3864   2.429   3.066   0.617
  268EC       C 3865   2.377   2.939   0.558
  268EC       O 3866   2.469   2.912   0.453
  268EC       H 3867   2.508   3.047   0.691
  268EC       H 3868   2.350   3.126   0.663
  268EC       H 3869   2.277   2.952   0.515
  268EC       H 3870   2.374   2.856   0.629
  269EC       O 3871   1.536   3.455   0.335
  269EC       C 3872   1.650   3.413   0.345
  269EC       O 3873   1.754   3.482   0.400
  269EC       C 3874   1.871   3.410   0.370
  269EC       C 3875   1.821   3.271   0.351
  269EC       O 3876   1.691   3.290   0.299
  269EC       H 3877   1.914   3.452   0.278
  269EC       H 3878   1.945   3.418   0.450
  269EC       H 3879   1.814   3.216   0.446
  269EC       H 3880   1.882   3.212   0.281
  270EC       O 3881   1.901   2.928   0.104
  270EC       C 3882   2.005   2.869   0.131
  270EC       O 3883   2.030   2.738   0.100
  270EC       C 3884   2.147   2.702   0.169
  270EC       C 3885   2.217   2.833   0.187
  270EC       O 3886   2.110   2.925   0.198
  270EC       H 3887   2.118   2.657   0.264
  270EC       H 3888   2.207   2.631   0.112
  270EC       H 3889   2.278   2.859   0.100
  270EC       H 3890   2.280   2.836   0.277
  271EC       O 3891   3.375   3.933   1.571
  271EC       C 3892   3.310   3.830   1.559
  271EC       O 3893   3.362   3.704   1.564
  271EC       C 3894   3.260   3.617   1.522
  271EC       C 3895   3.135   3.693   1.553
  271EC       O 3896   3.175   3.828   1.536
  271EC       H 3897   3.272   3.600   1.414
  271EC       H 3898   3.265   3.521   1.574
  271EC       H 3899   3.103   3.678   1.656
  271EC       H 3900   3.052   3.669   1.486
  272EC       O 3901   2.733   0.351   2.152
  272EC       C 3902   2.694   0.352   2.037
  272EC       O 3903   2.745   0.431   1.938
  272EC       C 3904   2.658   0.422   1.829
  272EC       C 3905   2.593   0.288   1.849
  272EC       O 3906   2.591   0.275   1.990
  272EC       H 3907   2.586   0.504   1.835
  272EC       H 3908   2.711   0.428   1.734
  272EC       H 3909   2.653   0.207   1.807
  272EC       H 3910   2.492   0.283   1.808
  273EC       O 3911   1.581   0.684   1.053
  273EC       C 3912   1.484   0.736   1.002
  273EC       O 3913   1.361   0.745   1.060
  273EC       C 3914   1.272   0.789   0.960
  273EC       C 3915   1.361   0.863   0.866
  273EC       O 3916   1.484   0.793   0.877
  273EC       H 3917   1.226   0.701   0.913
  273EC       H 3918   1.194   0.853   1.001
  273EC       H 3919   1.377   0.967   0.897
  273EC       H 3920   1.325   0.862   0.762
  274EC       O 3921   2.653   3.685   1.379
  274EC       C 3922   2.579   3.620   1.450
  274EC       O 3923   2.487   3.530   1.405
  274EC       C 3924   2.406   3.496   1.515
  274EC       C 3925   2.496   3.522   1.632
  274EC       O 3926   2.576   3.630   1.587
  274EC       H 3927   2.318   3.561   1.515
  274EC       H 3928   2.373   3.392   1.510
  274EC       H 3929   2.560   3.436   1.654
  274EC       H 3930   2.441   3.550   1.723
  275EC       O 3931   0.503   2.569   3.427
  275EC       C 3932   0.381   2.562   3.430
  275EC       O 3933   0.303   2.528   3.324
  275EC       C 3934   0.170   2.556   3.361
  275EC       C 3935   0.174   2.546   3.510
  275EC       O 3936   0.306   2.589   3.541
  275EC       H 3937   0.145   2.657   3.326
  275EC       H 3938   0.100   2.485   3.316
  275EC       H 3939   0.161   2.443   3.544
  275EC       H 3940   0.100   2.610   3.559
  276EC       O 3941   1.508   1.681   1.601
  276EC       C 3942   1.389   1.705   1.610
  276EC       O 3943   1.305   1.720   1.504
  276EC       C 3944   1.184   1.771   1.554
  276EC       C 3945   1.185   1.725   1.697
  276EC       O 3946   1.323   1.723   1.729
  276EC       H 3947   1.187   1.880   1.546
  276EC       H 3948   1.098   1.733   1.499
  276EC       H 3949   1.145   1.624   1.707
  276EC       H 3950   1.131   1.792   1.764
  277EC       O 3951   1.665   0.128   3.182
  277EC       C 3952   1.784   0.147   3.161
  277EC       O 3953   1.884   0.112   3.246
  277EC       C 3954   2.001   0.173   3.198
  277EC       C 3955   1.973   0.189   3.052
  277EC       O 3956   1.833   0.208   3.049
  277EC       H 3957   2.014   0.270   3.249
  277EC       H 3958   2.089   0.112   3.217
  277EC       H 3959   1.998   0.099   2.996
  277EC       H 3960   2.025   0.274   3.007
  278EC       O 3961   2.527   0.347   2.384
  278EC       C 3962   2.584   0.449   2.418
  278EC       O 3963   2.611   0.484   2.547
  278EC       C 3964   2.654   0.618   2.545
  278EC       C 3965   2.710   0.632   2.407
  278EC       O 3966   2.629   0.544   2.331
  278EC       H 3967   2.568   0.683   2.562
  278EC       H 3968   2.729   0.637   2.622
  278EC       H 3969   2.814   0.599   2.401
  278EC       H 3970   2.702   0.735   2.368
  279EC       O 3971   3.275   3.514   0.233
  279EC       C 3972   3.381   3.454   0.239
  279EC       O 3973   3.502   3.506   0.203
  279EC       C 3974   3.594   3.399   0.201
  279EC       C 3975   3.533   3.302   0.298
  279EC       O 3976   3.394   3.325   0.283
  279EC       H 3977   3.598   3.358   0.100
  279EC       H 3978   3.693   3.431   0.232
  279EC       H 3979   3.561   3.324   0.401
  279EC       H 3980   3.558   3.198   0.276
  280EC       O 3981   3.150   0.681   3.876
  280EC       C 3982   3.092   0.576   3.852
  280EC       O 3983   2.998   0.519   3.932
  280EC       C 3984   2.974   0.390   3.881
  280EC       C 3985   3.011   0.404   3.737
  280EC       O 3986   3.114   0.501   3.740
  280EC       H 3987   3.039   0.320   3.934
  280EC       H 3988   2.870   0.360   3.895
  280EC       H 3989   2.928   0.442   3.677
  280EC       H 3990   3.047   0.310   3.693
  281EC       O 3991   0.589   2.715   0.758
  281EC       C 3992   0.602   2.825   0.708
  281EC       O 3993   0.720   2.891   0.695
  281EC       C 3994   0.689   3.023   0.656
  281EC       C 3995   0.557   3.008   0.588
  281EC       O 3996   0.497   2.899   0.658
  281EC       H 3997   0.683   3.085   0.746
  281EC       H 3998   0.765   3.064   0.589
  281EC       H 3999   0.567   2.980   0.483
  281EC       H 4000   0.494   3.097   0.596
  282EC       O 4001   1.329   2.673   2.845
  282EC       C 4002   1.338   2.553   2.864
  282EC       O 4003   1.295   2.457   2.778
  282EC       C 4004   1.302   2.334   2.847
  282EC       C 4005   1.408   2.359   2.949
  282EC       O 4006   1.393   2.498   2.977
  282EC       H 4007   1.204   2.315   2.892
  282EC       H 4008   1.328   2.252   2.780
  282EC       H 4009   1.508   2.341   2.910
  282EC       H 4010   1.394   2.300   3.041
  283EC       O 4011   2.185   3.417   3.253
  283EC       C 4012   2.107   3.492   3.197
  283EC       O 4013   1.979   3.462   3.165
  283EC       C 4014   1.933   3.565   3.081
  283EC       C 4015   2.018   3.681   3.120
  283EC       O 4016   2.140   3.619   3.158
  283EC       H 4017   1.949   3.535   2.976
  283EC       H 4018   1.826   3.585   3.096
  283EC       H 4019   1.977   3.735   3.206
  283EC       H 4020   2.034   3.752   3.039
  284EC       O 4021   0.327   0.889   0.409
  284EC       C 4022   0.409   0.979   0.397
  284EC       O 4023   0.388   1.109   0.430
  284EC       C 4024   0.495   1.183   0.378
  284EC       C 4025   0.605   1.082   0.371
  284EC       O 4026   0.535   0.961   0.345
  284EC       H 4027   0.466   1.220   0.279
  284EC       H 4028   0.521   1.267   0.442
  284EC       H 4029   0.659   1.072   0.465
  284EC       H 4030   0.677   1.102   0.290
  285EC       O 4031   3.142   1.870   3.375
  285EC       C 4032   3.233   1.791   3.356
  285EC       O 4033   3.226   1.683   3.273
  285EC       C 4034   3.340   1.605   3.298
  285EC       C 4035   3.438   1.705   3.350
  285EC       O 4036   3.355   1.799   3.417
  285EC       H 4037   3.314   1.529   3.373
  285EC       H 4038   3.376   1.555   3.207
  285EC       H 4039   3.492   1.756   3.270
  285EC       H 4040   3.510   1.661   3.420
  286EC       O 4041   3.582   0.867   2.961
  286EC       C 4042   3.660   0.783   2.920
  286EC       O 4043   3.630   0.689   2.825
  286EC       C 4044   3.736   0.597   2.823
  286EC       C 4045   3.851   0.679   2.874
  286EC       O 4046   3.789   0.770   2.964
  286EC       H 4047   3.711   0.514   2.890
  286EC       H 4048   3.754   0.559   2.723
  286EC       H 4049   3.900   0.735   2.794
  286EC       H 4050   3.926   0.618   2.927
  287EC       O 4051   1.424   3.408   0.688
  287EC       C 4052   1.317   3.367   0.647
  287EC       O 4053   1.230   3.291   0.720
  287EC       C 4054   1.132   3.244   0.631
  287EC       C 4055   1.133   3.347   0.523
  287EC       O 4056   1.269   3.390   0.521
  287EC       H 4057   1.163   3.145   0.594
  287EC       H 4058   1.034   3.236   0.679
  287EC       H 4059   1.069   3.433   0.546
  287EC       H 4060   1.105   3.307   0.425
  288EC       O 4061   2.912   2.096   0.251
  288EC       C 4062   2.935   2.210   0.288
  288EC       O 4063   2.842   2.310   0.293
  288EC       C 4064   2.913   2.429   0.316
  288EC       C 4065   3.037   2.382   0.384
  288EC       O 4066   3.058   2.254   0.327
  288EC       H 4067   2.933   2.476   0.219
  288EC       H 4068   2.855   2.498   0.378
  288EC       H 4069   3.023   2.371   0.492
  288EC       H 4070   3.123   2.447   0.366
  289EC       O 4071   3.387   2.323   0.593
  289EC       C 4072   3.356   2.398   0.684
  289EC       O 4073   3.331   2.531   0.670
  289EC       C 4074   3.323   2.585   0.799
  289EC       C 4075   3.283   2.467   0.883
  289EC       O 4076   3.344   2.358   0.814
  289EC       H 4077   3.422   2.623   0.827
  289EC       H 4078   3.251   2.666   0.805
  289EC       H 4079   3.175   2.452   0.884
  289EC       H 4080   3.320   2.473   0.986
  290EC       O 4081   2.640   1.324   2.205
  290EC       C 4082   2.739   1.327   2.277
  290EC       O 4083   2.867   1.326   2.232
  290EC       C 4084   2.949   1.304   2.344
  290EC       C 4085   2.866   1.356   2.457
  290EC       O 4086   2.733   1.329   2.414
  290EC       H 4087   2.969   1.197   2.353
  290EC       H 4088   3.044   1.357   2.335
  290EC       H 4089   2.878   1.464   2.471
  290EC       H 4090   2.886   1.305   2.552
  291EC       O 4091   0.735   0.975   0.995
  291EC       C 4092   0.773   0.910   0.899
  291EC       O 4093   0.868   0.951   0.811
  291EC       C 4094   0.865   0.861   0.703
  291EC       C 4095   0.810   0.737   0.765
  291EC       O 4096   0.724   0.787   0.866
  291EC       H 4097   0.799   0.902   0.626
  291EC       H 4098   0.964   0.846   0.660
  291EC       H 4099   0.889   0.676   0.812
  291EC       H 4100   0.755   0.674   0.695
  292EC       O 4101   1.863   0.746   1.155
  292EC       C 4102   1.899   0.631   1.134
  292EC       O 4103   1.843   0.521   1.193
  292EC       C 4104   1.927   0.413   1.163
  292EC       C 4105   1.994   0.456   1.036
  292EC       O 4106   2.001   0.597   1.050
  292EC       H 4107   1.998   0.400   1.245
  292EC       H 4108   1.870   0.320   1.151
  292EC       H 4109   1.933   0.432   0.948
  292EC       H 4110   2.094   0.413   1.024
  293EC       O 4111   2.821   2.880   2.988
  293EC       C 4112   2.703   2.849   2.995
  293EC       O 4113   2.648   2.739   2.937
  293EC       C 4114   2.509   2.753   2.947
  293EC       C 4115   2.493   2.842   3.067
  293EC       O 4116   2.609   2.923   3.062
  293EC       H 4117   2.472   2.800   2.855
  293EC       H 4118   2.459   2.657   2.961
  293EC       H 4119   2.493   2.785   3.160
  293EC       H 4120   2.403   2.904   3.062
  294EC       O 4121   0.726   2.070   1.350
  294EC       C 4122   0.827   2.139   1.353
  294EC       O 4123   0.930   2.131   1.265
  294EC       C 4124   1.035   2.209   1.318
  294EC       C 4125   0.963   2.308   1.404
  294EC       O 4126   0.850   2.235   1.449
  294EC       H 4127   1.101   2.144   1.376
  294EC       H 4128   1.093   2.257   1.239
  294EC       H 4129   0.929   2.395   1.347
  294EC       H 4130   1.023   2.343   1.489
  295EC       O 4131   0.866   0.310   1.373
  295EC       C 4132   0.873   0.401   1.454
  295EC       O 4133   0.981   0.427   1.532
  295EC       C 4134   0.940   0.522   1.628
  295EC       C 4135   0.827   0.591   1.559
  295EC       O 4136   0.771   0.489   1.478
  295EC       H 4137   0.908   0.469   1.718
  295EC       H 4138   1.021   0.591   1.653
  295EC       H 4139   0.861   0.673   1.494
  295EC       H 4140   0.752   0.631   1.629
  296EC       O 4141   0.884   0.451   3.396
  296EC       C 4142   0.764   0.470   3.383
  296EC       O 4143   0.671   0.373   3.362
  296EC       C 4144   0.551   0.437   3.329
  296EC       C 4145   0.566   0.571   3.395
  296EC       O 4146   0.706   0.594   3.388
  296EC       H 4147   0.544   0.445   3.220
  296EC       H 4148   0.464   0.383   3.367
  296EC       H 4149   0.535   0.569   3.500
  296EC       H 4150   0.511   0.651   3.343
  297EC       O 4151   3.430   1.983   3.133
  297EC       C 4152   3.531   2.052   3.133
  297EC       O 4153   3.652   2.012   3.087
  297EC       C 4154   3.745   2.110   3.128
  297EC       C 4155   3.661   2.232   3.142
  297EC       O 4156   3.535   2.180   3.183
  297EC       H 4157   3.789   2.078   3.223
  297EC       H 4158   3.825   2.123   3.054
  297EC       H 4159   3.649   2.285   3.048
  297EC       H 4160   3.700   2.302   3.218
  298EC       O 4161   2.812   3.139   1.372
  298EC       C 4162   2.769   3.085   1.473
  298EC       O 4163   2.695   2.970   1.475
  298EC       C 4164   2.645   2.956   1.605
  298EC       C 4165   2.745   3.031   1.688
  298EC       O 4166   2.788   3.134   1.600
  298EC       H 4167   2.545   3.001   1.609
  298EC       H 4168   2.638   2.851   1.634
  298EC       H 4169   2.831   2.969   1.715
  298EC       H 4170   2.701   3.074   1.779
  299EC       O 4171   3.200   1.513   2.324
  299EC       C 4172   3.284   1.425   2.331
  299EC       O 4173   3.414   1.438   2.292
  299EC       C 4174   3.470   1.309   2.292
  299EC       C 4175   3.385   1.236   2.392
  299EC       O 4176   3.258   1.298   2.378
  299EC       H 4177   3.460   1.267   2.192
  299EC       H 4178   3.575   1.311   2.321
  299EC       H 4179   3.421   1.251   2.495
  299EC       H 4180   3.378   1.129   2.372
  300EC       O 4181   1.669   2.581   0.517
  300EC       C 4182   1.611   2.516   0.432
  300EC       O 4183   1.476   2.519   0.411
  300EC       C 4184   1.446   2.414   0.322
  300EC       C 4185   1.575   2.396   0.248
  300EC       O 4186   1.673   2.431   0.345
  300EC       H 4187   1.419   2.325   0.381
  300EC       H 4188   1.364   2.440   0.256
  300EC       H 4189   1.583   2.464   0.163
  300EC       H 4190   1.590   2.293   0.213
  301EC       O 4191   1.920   0.996   2.556
  301EC       C 4192   2.036   0.971   2.586
  301EC       O 4193   2.133   1.065   2.606
  301EC       C 4194   2.256   0.997   2.612
  301EC       C 4195   2.215   0.860   2.658
  301EC       O 4196   2.086   0.845   2.601
  301EC       H 4197   2.300   0.996   2.512
  301EC       H 4198   2.325   1.045   2.682
  301EC       H 4199   2.207   0.854   2.767
  301EC       H 4200   2.283   0.782   2.622
  302EC       O 4201   2.926   1.340   1.118
  302EC       C 4202   3.036   1.352   1.067
  302EC       O 4203   3.154   1.324   1.129
  302EC       C 4204   3.256   1.375   1.047
  302EC       C 4205   3.193   1.373   0.911
  302EC       O 4206   3.056   1.397   0.939
  302EC       H 4207   3.281   1.476   1.080
  302EC       H 4208   3.346   1.313   1.052
  302EC       H 4209   3.203   1.276   0.862
  302EC       H 4210   3.233   1.451   0.845
  303EC       O 4211   1.303   2.192   3.411
  303EC       C 4212   1.237   2.135   3.326
  303EC       O 4213   1.274   2.120   3.196
  303EC       C 4214   1.162   2.072   3.127
  303EC       C 4215   1.084   2.002   3.234
  303EC       O 4216   1.114   2.079   3.350
  303EC       H 4217   1.108   2.157   3.085
  303EC       H 4218   1.190   2.004   3.046
  303EC       H 4219   1.117   1.900   3.249
  303EC       H 4220   0.976   2.003   3.215
  304EC       O 4221   1.342   3.273   2.793
  304EC       C 4222   1.358   3.163   2.743
  304EC       O 4223   1.472   3.121   2.682
  304EC       C 4224   1.441   3.000   2.617
  304EC       C 4225   1.327   2.947   2.698
  304EC       O 4226   1.261   3.066   2.742
  304EC       H 4227   1.412   3.022   2.514
  304EC       H 4228   1.526   2.932   2.617
  304EC       H 4229   1.360   2.891   2.785
  304EC       H 4230   1.258   2.885   2.640
  305EC       O 4231   1.052   0.957   3.424
  305EC       C 4232   1.006   0.953   3.310
  305EC       O 4233   0.967   0.839   3.247
  305EC       C 4234   0.945   0.873   3.112
  305EC       C 4235   0.912   1.019   3.120
  305EC       O 4236   0.989   1.063   3.231
  305EC       H 4237   1.037   0.854   3.056
  305EC       H 4238   0.864   0.815   3.069
  305EC       H 4239   0.806   1.036   3.141
  305EC       H 4240   0.939   1.074   3.030
  306EC       O 4241   2.995   3.665   0.656
  306EC       C 4242   2.911   3.577   0.665
  306EC       O 4243   2.777   3.597   0.665
  306EC       C 4244   2.717   3.476   0.702
  306EC       C 4245   2.819   3.374   0.660
  306EC       O 4246   2.942   3.444   0.678
  306EC       H 4247   2.701   3.476   0.810
  306EC       H 4248   2.621   3.461   0.651
  306EC       H 4249   2.809   3.347   0.555
  306EC       H 4250   2.817   3.284   0.722
  307EC       O 4251   2.571   1.423   0.213
  307EC       C 4252   2.641   1.325   0.228
  307EC       O 4253   2.771   1.327   0.272
  307EC       C 4254   2.822   1.198   0.253
  307EC       C 4255   2.700   1.112   0.257
  307EC       O 4256   2.600   1.197   0.203
  307EC       H 4257   2.872   1.194   0.155
  307EC       H 4258   2.894   1.171   0.330
  307EC       H 4259   2.672   1.085   0.359
  307EC       H 4260   2.709   1.021   0.197
  308EC       O 4261   0.814   3.932   1.632
  308EC       C 4262   0.695   3.910   1.650
  308EC       O 4263   0.629   3.930   1.767
  308EC       C 4264   0.502   3.871   1.754
  308EC       C 4265   0.480   3.873   1.606
  308EC       O 4266   0.611   3.860   1.554
  308EC       H 4267   0.508   3.768   1.793
  308EC       H 4268   0.426   3.926   1.808
  308EC       H 4269   0.437   3.968   1.573
  308EC       H 4270   0.416   3.791   1.571
  309EC       O 4271   2.362   0.168   0.670
  309EC       C 4272   2.334   0.191   0.553
  309EC       O 4273   2.355   0.311   0.490
  309EC       C 4274   2.288   0.304   0.367
  309EC       C 4275   2.285   0.157   0.339
  309EC       O 4276   2.277   0.100   0.469
  309EC       H 4277   2.188   0.346   0.379
  309EC       H 4278   2.341   0.359   0.290
  309EC       H 4279   2.377   0.122   0.290
  309EC       H 4280   2.199   0.127   0.278
  310EC       O 4281   3.141   0.561   1.294
  310EC       C 4282   3.019   0.567   1.293
  310EC       O 4283   2.947   0.681   1.310
  310EC       C 4284   2.813   0.642   1.328
  310EC       C 4285   2.807   0.509   1.258
  310EC       O 4286   2.938   0.458   1.277
  310EC       H 4287   2.793   0.633   1.435
  310EC       H 4288   2.744   0.714   1.285
  310EC       H 4289   2.788   0.520   1.151
  310EC       H 4290   2.732   0.442   1.301
  311EC       O 4291   2.278   1.514   3.011
  311EC       C 4292   2.222   1.424   3.071
  311EC       O 4293   2.089   1.396   3.064
  311EC       C 4294   2.062   1.303   3.166
  311EC       C 4295   2.194   1.236   3.187
  311EC       O 4296   2.287   1.339   3.157
  311EC       H 4297   2.029   1.358   3.255
  311EC       H 4298   1.984   1.232   3.136
  311EC       H 4299   2.210   1.153   3.117
  311EC       H 4300   2.208   1.200   3.289
  312EC       O 4301   2.891   2.227   1.063
  312EC       C 4302   2.912   2.345   1.090
  312EC       O 4303   2.994   2.388   1.190
  312EC       C 4304   2.971   2.526   1.205
  312EC       C 4305   2.922   2.566   1.069
  312EC       O 4306   2.854   2.450   1.025
  312EC       H 4307   2.896   2.540   1.283
  312EC       H 4308   3.062   2.579   1.233
  312EC       H 4309   3.004   2.588   1.000
  312EC       H 4310   2.854   2.652   1.072
  313EC       O 4311   1.110   3.123   1.036
  313EC       C 4312   1.207   3.092   0.970
  313EC       O 4313   1.333   3.076   1.019
  313EC       C 4314   1.419   3.064   0.908
  313EC       C 4315   1.329   3.011   0.802
  313EC       O 4316   1.203   3.068   0.835
  313EC       H 4317   1.458   3.164   0.884
  313EC       H 4318   1.502   2.997   0.929
  313EC       H 4319   1.320   2.902   0.805
  313EC       H 4320   1.359   3.041   0.701
  314EC       O 4321   0.107   0.673   1.087
  314EC       C 4322   0.181   0.770   1.084
  314EC       O 4323   0.140   0.899   1.102
  314EC       C 4324   0.249   0.981   1.067
  314EC       C 4325   0.367   0.892   1.090
  314EC       O 4326   0.316   0.763   1.061
  314EC       H 4327   0.238   1.010   0.962
  314EC       H 4328   0.252   1.071   1.129
  314EC       H 4329   0.400   0.894   1.194
  314EC       H 4330   0.452   0.916   1.025
  315EC       O 4331   2.745   2.519   0.603
  315EC       C 4332   2.638   2.499   0.548
  315EC       O 4333   2.619   2.413   0.444
  315EC       C 4334   2.490   2.437   0.394
  315EC       C 4335   2.418   2.494   0.513
  315EC       O 4336   2.521   2.562   0.582
  315EC       H 4337   2.497   2.509   0.312
  315EC       H 4338   2.443   2.346   0.357
  315EC       H 4339   2.377   2.416   0.577
  315EC       H 4340   2.338   2.563   0.485
  316EC       O 4341   2.561   0.402   3.062
  316EC       C 4342   2.462   0.470   3.084
  316EC       O 4343   2.359   0.432   3.165
  316EC       C 4344   2.255   0.525   3.145
  316EC       C 4345   2.328   0.647   3.100
  316EC       O 4346   2.440   0.594   3.030
  316EC       H 4347   2.188   0.486   3.068
  316EC       H 4348   2.199   0.542   3.237
  316EC       H 4349   2.364   0.707   3.184
  316EC       H 4350   2.268   0.711   3.033
  317EC       O 4351   0.766   2.001   0.277
  317EC       C 4352   0.855   2.082   0.291
  317EC       O 4353   0.988   2.055   0.277
  317EC       C 4354   1.058   2.168   0.325
  317EC       C 4355   0.959   2.279   0.306
  317EC       O 4356   0.834   2.214   0.324
  317EC       H 4357   1.082   2.151   0.430
  317EC       H 4358   1.150   2.184   0.269
  317EC       H 4359   0.964   2.320   0.205
  317EC       H 4360   0.972   2.360   0.378
  318EC       O 4361   3.359   3.585   2.601
  318EC       C 4362   3.290   3.662   2.666
  318EC       O 4363   3.298   3.679   2.801
  318EC       C 4364   3.187   3.756   2.839
  318EC       C 4365   3.154   3.832   2.714
  318EC       O 4366   3.193   3.742   2.611
  318EC       H 4367   3.106   3.688   2.868
  318EC       H 4368   3.210   3.822   2.923
  318EC       H 4369   3.214   3.924   2.705
  318EC       H 4370   3.048   3.857   2.706
  319EC       O 4371   2.158   3.533   3.453
  319EC       C 4372   2.111   3.423   3.473
  319EC       O 4373   2.182   3.313   3.510
  319EC       C 4374   2.096   3.203   3.499
  319EC       C 4375   1.961   3.264   3.516
  319EC       O 4376   1.977   3.394   3.461
  319EC       H 4377   2.109   3.158   3.400
  319EC       H 4378   2.117   3.127   3.575
  319EC       H 4379   1.933   3.274   3.622
  319EC       H 4380   1.882   3.209   3.464
  320EC       O 4381   0.686   0.534   2.287
  320EC       C 4382   0.695   0.412   2.277
  320EC       O 4383   0.608   0.323   2.331
  320EC       C 4384   0.667   0.196   2.318
  320EC       C 4385   0.757   0.213   2.200
  320EC       O 4386   0.796   0.349   2.209
  320EC       H 4387   0.722   0.174   2.410
  320EC       H 4388   0.592   0.118   2.302
  320EC       H 4389   0.704   0.197   2.106
  320EC       H 4390   0.845   0.147   2.204
  321EC       O 4391   2.376   3.648   2.338
  321EC       C 4392   2.266   3.697   2.358
  321EC       O 4393   2.241   3.831   2.364
  321EC       C 4394   2.110   3.846   2.413
  321EC       C 4395   2.045   3.717   2.374
  321EC       O 4396   2.153   3.624   2.379
  321EC       H 4397   2.115   3.858   2.522
  321EC       H 4398   2.060   3.932   2.369
  321EC       H 4399   2.006   3.719   2.272
  321EC       H 4400   1.965   3.687   2.442
  322EC       O 4401   3.975   1.226   3.367
  322EC       C 4402   3.956   1.305   3.276
  322EC       O 4403   3.892   1.276   3.159
  322EC       C 4404   3.914   1.385   3.073
  322EC       C 4405   3.937   1.498   3.167
  322EC       O 4406   3.999   1.435   3.278
  322EC       H 4407   4.002   1.364   3.011
  322EC       H 4408   3.828   1.402   3.008
  322EC       H 4409   3.843   1.544   3.200
  322EC       H 4410   4.002   1.576   3.126
  323EC       O 4411   3.376   2.725   3.236
  323EC       C 4412   3.413   2.841   3.235
  323EC       O 4413   3.477   2.903   3.339
  323EC       C 4414   3.479   3.040   3.309
  323EC       C 4415   3.471   3.042   3.160
  323EC       O 4416   3.393   2.927   3.131
  323EC       H 4417   3.392   3.087   3.356
  323EC       H 4418   3.570   3.088   3.346
  323EC       H 4419   3.569   3.032   3.113
  323EC       H 4420   3.422   3.132   3.121
  324EC       O 4421   2.787   2.917   3.860
  324EC       C 4422   2.814   3.035   3.843
  324EC       O 4423   2.940   3.086   3.839
  324EC       C 4424   2.927   3.226   3.842
  324EC       C 4425   2.791   3.248   3.784
  324EC       O 4426   2.720   3.132   3.825
  324EC       H 4427   2.933   3.259   3.947
  324EC       H 4428   3.005   3.275   3.784
  324EC       H 4429   2.793   3.252   3.675
  324EC       H 4430   2.742   3.339   3.822
  325EC       O 4431   3.420   0.886   2.261
  325EC       C 4432   3.528   0.939   2.236
  325EC       O 4433   3.640   0.873   2.196
  325EC       C 4434   3.746   0.965   2.203
  325EC       C 4435   3.677   1.097   2.187
  325EC       O 4436   3.550   1.074   2.247
  325EC       H 4437   3.794   0.955   2.301
  325EC       H 4438   3.820   0.947   2.125
  325EC       H 4439   3.662   1.123   2.082
  325EC       H 4440   3.730   1.179   2.238
  326EC       O 4441   2.899   3.118   0.399
  326EC       C 4442   2.979   3.027   0.417
  326EC       O 4443   3.100   3.017   0.357
  326EC       C 4444   3.149   2.888   0.384
  326EC       C 4445   3.080   2.852   0.512
  326EC       O 4446   2.955   2.921   0.500
  326EC       H 4447   3.121   2.822   0.301
  326EC       H 4448   3.258   2.888   0.395
  326EC       H 4449   3.133   2.890   0.599
  326EC       H 4450   3.064   2.745   0.523
  327EC       O 4451   2.597   0.756   1.991
  327EC       C 4452   2.521   0.851   1.987
  327EC       O 4453   2.559   0.981   1.970
  327EC       C 4454   2.446   1.061   1.996
  327EC       C 4455   2.332   0.968   1.966
  327EC       O 4456   2.385   0.841   2.001
  327EC       H 4457   2.448   1.090   2.102
  327EC       H 4458   2.445   1.150   1.934
  327EC       H 4459   2.307   0.968   1.860
  327EC       H 4460   2.243   0.990   2.024
  328EC       O 4461   3.563   2.938   1.052
  328EC       C 4462   3.447   2.908   1.076
  328EC       O 4463   3.341   2.992   1.061
  328EC       C 4464   3.231   2.928   1.121
  328EC       C 4465   3.267   2.783   1.112
  328EC       O 4466   3.408   2.785   1.122
  328EC       H 4467   3.223   2.963   1.225
  328EC       H 4468   3.138   2.951   1.069
  328EC       H 4469   3.238   2.740   1.016
  328EC       H 4470   3.223   2.723   1.193
  329EC       O 4471   0.717   3.865   1.294
  329EC       C 4472   0.624   3.829   1.224
  329EC       O 4473   0.493   3.840   1.257
  329EC       C 4474   0.420   3.766   1.162
  329EC       C 4475   0.511   3.768   1.042
  329EC       O 4476   0.640   3.771   1.101
  329EC       H 4477   0.405   3.665   1.201
  329EC       H 4478   0.323   3.811   1.141
  329EC       H 4479   0.497   3.858   0.982
  329EC       H 4480   0.499   3.680   0.979
  330EC       O 4481   3.023   2.287   3.049
  330EC       C 4482   2.955   2.200   2.997
  330EC       O 4483   2.820   2.206   2.981
  330EC       C 4484   2.777   2.078   2.941
  330EC       C 4485   2.900   2.021   2.876
  330EC       O 4486   3.005   2.082   2.949
  330EC       H 4487   2.748   2.022   3.030
  330EC       H 4488   2.693   2.083   2.872
  330EC       H 4489   2.908   2.050   2.771
  330EC       H 4490   2.905   1.912   2.884
  331EC       O 4491   3.604   2.600   2.593
  331EC       C 4492   3.567   2.509   2.666
  331EC       O 4493   3.465   2.518   2.755
  331EC       C 4494   3.470   2.403   2.835
  331EC       C 4495   3.538   2.304   2.746
  331EC       O 4496   3.625   2.385   2.668
  331EC       H 4497   3.529   2.426   2.925
  331EC       H 4498   3.371   2.370   2.866
  331EC       H 4499   3.468   2.253   2.680
  331EC       H 4500   3.596   2.229   2.802
  332EC       O 4501   2.367   2.000   0.380
  332EC       C 4502   2.278   1.920   0.356
  332EC       O 4503   2.151   1.954   0.319
  332EC       C 4504   2.075   1.836   0.324
  332EC       C 4505   2.177   1.729   0.304
  332EC       O 4506   2.293   1.784   0.363
  332EC       H 4507   2.027   1.831   0.423
  332EC       H 4508   1.997   1.835   0.247
  332EC       H 4509   2.196   1.710   0.198
  332EC       H 4510   2.150   1.634   0.353
  333EC       O 4511   0.305   2.024   2.855
  333EC       C 4512   0.425   2.005   2.869
  333EC       O 4513   0.484   1.883   2.876
  333EC       C 4514   0.617   1.904   2.916
  333EC       C 4515   0.644   2.044   2.871
  333EC       O 4516   0.516   2.106   2.882
  333EC       H 4517   0.622   1.894   3.025
  333EC       H 4518   0.685   1.832   2.871
  333EC       H 4519   0.676   2.048   2.767
  333EC       H 4520   0.717   2.096   2.933
  334EC       O 4521   3.912   1.621   2.854
  334EC       C 4522   3.898   1.742   2.846
  334EC       O 4523   4.000   1.830   2.827
  334EC       C 4524   3.947   1.959   2.848
  334EC       C 4525   3.802   1.941   2.817
  334EC       O 4526   3.778   1.807   2.857
  334EC       H 4527   3.965   1.987   2.952
  334EC       H 4528   3.994   2.033   2.783
  334EC       H 4529   3.781   1.951   2.710
  334EC       H 4530   3.738   2.010   2.873
  335EC       O 4531   1.836   2.331   1.203
  335EC       C 4532   1.917   2.382   1.279
  335EC       O 4533   2.004   2.312   1.357
  335EC       C 4534   2.061   2.403   1.447
  335EC       C 4535   2.049   2.534   1.374
  335EC       O 4536   1.930   2.516   1.298
  335EC       H 4537   2.002   2.402   1.540
  335EC       H 4538   2.165   2.378   1.470
  335EC       H 4539   2.133   2.550   1.306
  335EC       H 4540   2.040   2.620   1.441
  336EC       O 4541   2.583   2.953   1.239
  336EC       C 4542   2.595   2.926   1.121
  336EC       O 4543   2.705   2.953   1.046
  336EC       C 4544   2.671   2.928   0.912
  336EC       C 4545   2.560   2.828   0.924
  336EC       O 4546   2.498   2.864   1.047
  336EC       H 4547   2.637   3.022   0.867
  336EC       H 4548   2.755   2.889   0.855
  336EC       H 4549   2.597   2.726   0.932
  336EC       H 4550   2.488   2.834   0.842
  337EC       O 4551   1.456   0.945   2.681
  337EC       C 4552   1.519   0.951   2.785
  337EC       O 4553   1.547   0.844   2.865
  337EC       C 4554   1.598   0.896   2.986
  337EC       C 4555   1.656   1.027   2.943
  337EC       O 4556   1.570   1.067   2.837
  337EC       H 4557   1.516   0.907   3.057
  337EC       H 4558   1.674   0.830   3.029
  337EC       H 4559   1.757   1.017   2.905
  337EC       H 4560   1.654   1.102   3.023
  338EC       O 4561   0.620   1.352   3.629
  338EC       C 4562   0.638   1.371   3.509
  338EC       O 4563   0.715   1.471   3.457
  338EC       C 4564   0.690   1.473   3.319
  338EC       C 4565   0.646   1.333   3.290
  338EC       O 4566   0.581   1.295   3.411
  338EC       H 4567   0.611   1.547   3.300
  338EC       H 4568   0.779   1.501   3.262
  338EC       H 4569   0.730   1.266   3.272
  338EC       H 4570   0.576   1.327   3.206
  339EC       O 4571   2.527   3.348   2.202
  339EC       C 4572   2.444   3.423   2.154
  339EC       O 4573   2.456   3.485   2.033
  339EC       C 4574   2.354   3.581   2.025
  339EC       C 4575   2.250   3.526   2.117
  339EC       O 4576   2.327   3.458   2.215
  339EC       H 4577   2.394   3.677   2.059
  339EC       H 4578   2.317   3.592   1.923
  339EC       H 4579   2.185   3.454   2.067
  339EC       H 4580   2.188   3.604   2.163
  340EC       O 4581   0.541   2.730   1.565
  340EC       C 4582   0.520   2.611   1.577
  340EC       O 4583   0.519   2.543   1.696
  340EC       C 4584   0.515   2.406   1.664
  340EC       C 4585   0.451   2.405   1.529
  340EC       O 4586   0.494   2.527   1.472
  340EC       H 4587   0.618   2.368   1.661
  340EC       H 4588   0.458   2.350   1.738
  340EC       H 4589   0.341   2.405   1.536
  340EC       H 4590   0.482   2.320   1.468
  341PF6      F 4591   3.871   3.141   1.352
  341PF6      P 4592   3.844   3.288   1.416
  341PF6      F 4593   3.717   3.228   1.499
  341PF6      F 4594   3.943   3.252   1.541
  341PF6      F 4595   3.816   3.435   1.480
  341PF6      F 4596   3.970   3.348   1.333
  341PF6      F 4597   3.745   3.324   1.292
  342PF6      F 4598   0.258   0.553   1.460
  342PF6      P 4599   0.284   0.554   1.299
  342PF6      F 4600   0.134   0.494   1.274
  342PF6      F 4601   0.225   0.706   1.290
  342PF6      F 4602   0.310   0.555   1.138
  342PF6      F 4603   0.434   0.614   1.323
  342PF6      F 4604   0.343   0.403   1.307
  343PF6      F 4605   3.374   2.767   2.657
  343PF6      P 4606   3.429   2.906   2.592
  343PF6      F 4607   3.461   2.963   2.741
  343PF6      F 4608   3.579   2.842   2.585
  343PF6      F 4609   3.484   3.044   2.527
  343PF6      F 4610   3.397   2.848   2.443
  343PF6      F 4611   3.279   2.969   2.600
  344PF6      F 4612   2.195   2.118   2.292
  344PF6      P 4613   2.279   2.010   2.203
  344PF6      F 4614   2.238   1.892   2.308
  344PF6      F 4615   2.145   1.978   2.116
  344PF6      F 4616   2.362   1.902   2.113
  344PF6      F 4617   2.319   2.128   2.098
  344PF6      F 4618   2.413   2.042   2.290
  345PF6      F 4619   3.923   2.780   1.639
  345PF6      P 4620   3.784   2.694   1.635
  345PF6      F 4621   3.840   2.612   1.506
  345PF6      F 4622   3.851   2.583   1.734
  345PF6      F 4623   3.646   2.608   1.631
  345PF6      F 4624   3.729   2.776   1.764
  345PF6      F 4625   3.718   2.805   1.536
  346PF6      F 4626   2.448   3.769   0.400
  346PF6      P 4627   2.495   3.727   0.250
  346PF6      F 4628   2.375   3.816   0.186
  346PF6      F 4629   2.594   3.857   0.245
  346PF6      F 4630   2.543   3.685   0.099
  346PF6      F 4631   2.616   3.638   0.313
  346PF6      F 4632   2.397   3.597   0.255
  347PF6      F 4633   1.722   3.297   2.487
  347PF6      P 4634   1.594   3.228   2.414
  347PF6      F 4635   1.621   3.090   2.497
  347PF6      F 4636   1.497   3.282   2.533
  347PF6      F 4637   1.466   3.159   2.341
  347PF6      F 4638   1.567   3.366   2.330
  347PF6      F 4639   1.691   3.174   2.294
  348PF6      F 4640   1.792   1.460   3.211
  348PF6      P 4641   1.712   1.562   3.309
  348PF6      F 4642   1.854   1.618   3.366
  348PF6      F 4643   1.713   1.676   3.193
  348PF6      F 4644   1.631   1.664   3.408
  348PF6      F 4645   1.570   1.505   3.252
  348PF6      F 4646   1.710   1.448   3.426
  349PF6      F 4647   0.103   2.037   1.234
  349PF6      P 4648   0.196   2.128   1.331
  349PF6      F 4649   0.286   1.998   1.369
  349PF6      F 4650   0.295   2.160   1.206
  349PF6      F 4651   0.290   2.220   1.428
  349PF6      F 4652   0.107   2.259   1.294
  349PF6      F 4653   0.098   2.097   1.457
  350PF6      F 4654   2.378   0.214   3.511
  350PF6      P 4655   2.257   0.259   3.610
  350PF6      F 4656   2.149   0.224   3.492
  350PF6      F 4657   2.246   0.106   3.665
  350PF6      F 4658   2.135   0.304   3.708
  350PF6      F 4659   2.365   0.294   3.727
  350PF6      F 4660   2.268   0.412   3.554
  351PF6      F 4661   0.846   3.403   3.469
  351PF6      P 4662   0.977   3.354   3.553
  351PF6      F 4663   0.944   3.463   3.669
  351PF6      F 4664   0.886   3.243   3.631
  351PF6      F 4665   1.108   3.304   3.637
  351PF6      F 4666   1.011   3.245   3.437
  351PF6      F 4667   1.068   3.464   3.475
  352PF6      F 4668   2.776   3.108   2.932
  352PF6      P 4669   2.773   3.099   2.769
  352PF6      F 4670   2.787   2.937   2.778
  352PF6      F 4671   2.611   3.086   2.773
  352PF6      F 4672   2.770   3.090   2.607
  352PF6      F 4673   2.760   3.261   2.760
  352PF6      F 4674   2.936   3.113   2.766
  353PF6      F 4675   1.499   3.027   1.773
  353PF6      P 4676   1.519   3.042   1.934
  353PF6      F 4677   1.357   3.046   1.954
  353PF6      F 4678   1.517   2.880   1.949
  353PF6      F 4679   1.539   3.057   2.095
  353PF6      F 4680   1.681   3.037   1.914
  353PF6      F 4681   1.522   3.204   1.918
  354PF6      F 4682   0.969   1.861   3.420
  354PF6      P 4683   0.894   1.831   3.562
  354PF6      F 4684   0.807   1.713   3.491
  354PF6      F 4685   1.010   1.723   3.601
  354PF6      F 4686   0.819   1.801   3.704
  354PF6      F 4687   0.981   1.949   3.633
  354PF6      F 4688   0.778   1.939   3.523
  355PF6      F 4689   2.656   3.986   2.435
  355PF6      P 4690   2.524   3.902   2.479
  355PF6      F 4691   2.504   4.000   2.607
  355PF6      F 4692   2.431   4.000   2.389
  355PF6      F 4693   2.392   3.817   2.523
  355PF6      F 4694   2.544   3.803   2.351
  355PF6      F 4695   2.617   3.803   2.569
  356PF6      F 4696   2.908   2.916   1.490
  356PF6      P 4697   2.960   2.853   1.348
  356PF6      F 4698   2.959   3.002   1.282
  356PF6      F 4699   3.114   2.875   1.395
  356PF6      F 4700   3.011   2.791   1.207
  356PF6      F 4701   2.961   2.704   1.414
  356PF6      F 4702   2.805   2.832   1.301
  357PF6      F 4703   3.830   3.039   3.878
  357PF6      P 4704   3.788   3.007   3.724
  357PF6      F 4705   3.942   2.965   3.691
  357PF6      F 4706   3.755   2.853   3.765
  357PF6      F 4707   3.746   2.974   3.570
  357PF6      F 4708   3.634   3.048   3.757
  357PF6      F 4709   3.821   3.161   3.682
  358PF6      F 4710   1.635   1.276   2.854
  358PF6      P 4711   1.562   1.304   2.711
  358PF6      F 4712   1.627   1.168   2.650
  358PF6      F 4713   1.432   1.220   2.761
  358PF6      F 4714   1.489   1.333   2.568
  358PF6      F 4715   1.497   1.441   2.772
  358PF6      F 4716   1.692   1.389   2.661
  359PF6      F 4717   1.672   2.657   0.867
  359PF6      P 4718   1.741   2.648   1.015
  359PF6      F 4719   1.883   2.696   0.952
  359PF6      F 4720   1.701   2.804   1.042
  359PF6      F 4721   1.809   2.640   1.163
  359PF6      F 4722   1.598   2.601   1.078
  359PF6      F 4723   1.781   2.493   0.987
  360PF6      F 4724   0.505   3.389   1.235
  360PF6      P 4725   0.555   3.411   1.081
  360PF6      F 4726   0.695   3.334   1.116
  360PF6      F 4727   0.488   3.269   1.038
  360PF6      F 4728   0.605   3.433   0.928
  360PF6      F 4729   0.416   3.488   1.046
  360PF6      F 4730   0.623   3.553   1.124
  361PF6      F 4731   0.239   3.133   1.526
  361PF6      P 4732   0.307   3.279   1.552
  361PF6      F 4733   0.186   3.349   1.467
  361PF6      F 4734   0.220   3.296   1.688
  361PF6      F 4735   0.374   3.426   1.577
  361PF6      F 4736   0.427   3.209   1.636
  361PF6      F 4737   0.394   3.263   1.415
  362PF6      F 4738   1.272   0.418   2.720
  362PF6      P 4739   1.173   0.525   2.793
  362PF6      F 4740   1.082   0.534   2.658
  362PF6      F 4741   1.080   0.403   2.847
  362PF6      F 4742   1.074   0.633   2.866
  362PF6      F 4743   1.263   0.517   2.928
  362PF6      F 4744   1.265   0.648   2.739
  363PF6      F 4745   0.356   1.242   0.602
  363PF6      P 4746   0.390   1.134   0.719
  363PF6      F 4747   0.266   1.192   0.808
  363PF6      F 4748   0.289   1.027   0.649
  363PF6      F 4749   0.423   1.025   0.836
  363PF6      F 4750   0.514   1.076   0.630
  363PF6      F 4751   0.490   1.241   0.790
  364PF6      F 4752   1.441   1.576   2.141
  364PF6      P 4753   1.466   1.595   1.981
  364PF6      F 4754   1.466   1.433   1.962
  364PF6      F 4755   1.305   1.599   1.956
  364PF6      F 4756   1.492   1.614   1.821
  364PF6      F 4757   1.467   1.757   2.000
  364PF6      F 4758   1.627   1.592   2.006
  365PF6      F 4759   1.886   2.490   2.604
  365PF6      P 4760   1.918   2.540   2.451
  365PF6      F 4761   1.972   2.682   2.509
  365PF6      F 4762   2.069   2.478   2.463
  365PF6      F 4763   1.950   2.589   2.299
  365PF6      F 4764   1.864   2.397   2.394
  365PF6      F 4765   1.767   2.601   2.440
  366PF6      F 4766   3.098   1.253   2.522
  366PF6      P 4767   3.105   1.103   2.585
  366PF6      F 4768   2.949   1.078   2.544
  366PF6      F 4769   3.152   1.044   2.441
  366PF6      F 4770   3.112   0.953   2.649
  366PF6      F 4771   3.261   1.128   2.627
  366PF6      F 4772   3.057   1.163   2.730
  367PF6      F 4773   3.376   2.344   3.775
  367PF6      P 4774   3.518   2.405   3.721
  367PF6      F 4775   3.480   2.550   3.785
  367PF6      F 4776   3.590   2.361   3.861
  367PF6      F 4777   3.659   2.465   3.667
  367PF6      F 4778   3.555   2.260   3.656
  367PF6      F 4779   3.445   2.448   3.581
  368PF6      F 4780   1.594   3.470   1.772
  368PF6      P 4781   1.749   3.507   1.736
  368PF6      F 4782   1.737   3.643   1.826
  368PF6      F 4783   1.799   3.424   1.867
  368PF6      F 4784   1.903   3.544   1.701
  368PF6      F 4785   1.760   3.372   1.646
  368PF6      F 4786   1.699   3.590   1.605
  369PF6      F 4787   3.717   3.735   3.361
  369PF6      P 4788   3.809   3.867   3.338
  369PF6      F 4789   3.941   3.773   3.323
  369PF6      F 4790   3.783   3.858   3.177
  369PF6      F 4791   3.901   4.000   3.316
  369PF6      F 4792   3.677   3.962   3.353
  369PF6      F 4793   3.834   3.877   3.499
  370PF6      F 4794   3.600   1.458   3.198
  370PF6      P 4795   3.565   1.335   3.298
  370PF6      F 4796   3.410   1.338   3.247
  370PF6      F 4797   3.602   1.228   3.181
  370PF6      F 4798   3.529   1.212   3.399
  370PF6      F 4799   3.719   1.332   3.350
  370PF6      F 4800   3.528   1.442   3.416
  371PF6      F 4801   0.753   2.978   3.158
  371PF6      P 4802   0.884   2.881   3.167
  371PF6      F 4803   0.795   2.756   3.112
  371PF6      F 4804   0.923   2.920   3.013
  371PF6      F 4805   1.015   2.784   3.175
  371PF6      F 4806   0.973   3.006   3.221
  371PF6      F 4807   0.846   2.842   3.320
  372PF6      F 4808   3.956   2.141   0.360
  372PF6      P 4809   3.864   2.007   0.361
  372PF6      F 4810   3.937   1.955   0.225
  372PF6      F 4811   3.976   1.930   0.451
  372PF6      F 4812   3.771   1.872   0.363
  372PF6      F 4813   3.790   2.058   0.497
  372PF6      F 4814   3.751   2.083   0.272
  373PF6      F 4815   1.658   2.061   1.441
  373PF6      P 4816   1.788   2.098   1.349
  373PF6      F 4817   1.886   2.062   1.475
  373PF6      F 4818   1.797   1.943   1.298
  373PF6      F 4819   1.918   2.135   1.258
  373PF6      F 4820   1.690   2.134   1.224
  373PF6      F 4821   1.780   2.252   1.401
  374PF6      F 4822   0.500   2.350   2.240
  374PF6      P 4823   0.570   2.279   2.369
  374PF6      F 4824   0.671   2.198   2.271
  374PF6      F 4825   0.677   2.402   2.379
  374PF6      F 4826   0.639   2.209   2.499
  374PF6      F 4827   0.468   2.360   2.468
  374PF6      F 4828   0.462   2.157   2.360
  375LI      Li 4829   3.261   3.682   3.146
  376LI      Li 4830   2.322   3.286   2.032
  377LI      Li 4831   3.121   2.865   0.859
  378LI      Li 4832   2.601   0.652   1.126
  379LI      Li 4833   1.767   0.707   2.530
  380LI      Li 4834   2.355   3.165   3.355
  381LI      Li 4835   0.863   1.296   1.376
  382LI      Li 4836   0.936   1.893   1.983
  383LI      Li 4837   1.888   3.032   1.559
  384LI      Li 4838   0.252   0.952   1.998
  385LI      Li 4839   2.348   1.798   3.645
  386LI      Li 4840   2.882   0.709   1.734
  387LI      Li 4841   0.889   0.765   2.609
  388LI      Li 4842   3.055   3.390   2.071
  389LI      Li 4843   3.762   3.112   0.717
  390LI      Li 4844   2.620   2.840   0.662
  391LI      Li 4845   3.404   1.091   3.697
  392LI      Li 4846   1.256   2.816   0.612
  393LI      Li 4847   2.323   0.524   0.559
  394LI      Li 4848   1.150   1.325   3.876
  395LI      Li 4849   2.924   3.187   1.090
  396LI      Li 4850   1.385   1.612   0.928
  397LI      Li 4851   3.514   0.272   1.752
  398LI      Li 4852   0.918   2.391   0.961
  399LI      Li 4853   2.051   3.223   3.899
  400LI      Li 4854   2.380   3.000   2.865
  401LI      Li 4855   3.507   1.130   2.992
  402LI      Li 4856   2.250   0.137   1.815
  403LI      Li 4857   4.000   3.150   0.475
  404LI      Li 4858   1.646   1.035   3.340
  405LI      Li 4859   3.752   1.997   2.352
  406LI      Li 4860   3.505   3.993   1.212
  407LI      Li 4861   2.128   2.307   2.203
  408LI      Li 4862   3.932   2.990   2.216
   4.10000   4.10000   4.10000
